<?xml version="1.0"?>

<!-- generated on Wed Apr 17 14:23:10 2013 by SUMO sumo Version 0.16.0
<?xml version="1.0" encoding="UTF-8"?>

<configuration xmlns:xsi="http://www.w3.org/2001/XMLSchema-instance" xsi:noNamespaceSchemaLocation="http://sumo.sf.net/xsd/sumoConfiguration.xsd">

    <input>
        <net-file value="../grid6_4.net.xml"/>
        <route-files value="grid6_4.rou.xml"/>
    </input>

    <output>
        <netstate-dump value="netstate6_4.xml"/>
    </output>

    <time>
        <begin value="0"/>
        <end value="200"/>
    </time>

    <processing>
        <time-to-teleport value="-1"/>
    </processing>

</configuration>
-->

<sumo-netstate>
    <timestep time="0.00">
        <edge id="L0102">
            <lane id="L0102_0">
                <vehicle id="F02_0" pos="5.10" speed="0.00"/>
            </lane>
            <lane id="L0102_1"/>
        </edge>
        <edge id="L0107">
            <lane id="L0107_0">
                <vehicle id="F01_0" pos="5.10" speed="0.00"/>
            </lane>
            <lane id="L0107_1"/>
            <lane id="L0107_2"/>
        </edge>
        <edge id="L0208">
            <lane id="L0208_0">
                <vehicle id="F06_0" pos="5.10" speed="0.00"/>
            </lane>
        </edge>
        <edge id="L0309">
            <lane id="L0309_0">
                <vehicle id="F07_0" pos="5.10" speed="0.00"/>
            </lane>
        </edge>
        <edge id="L0511">
            <lane id="L0511_0">
                <vehicle id="F09_0" pos="5.10" speed="0.00"/>
            </lane>
        </edge>
        <edge id="L0612">
            <lane id="L0612_0">
                <vehicle id="F13_0" pos="5.10" speed="0.00"/>
            </lane>
            <lane id="L0612_1"/>
            <lane id="L0612_2">
                <vehicle id="F10_0" pos="5.10" speed="0.00"/>
            </lane>
        </edge>
        <edge id="L1211">
            <lane id="L1211_0"/>
            <lane id="L1211_1">
                <vehicle id="F03_0" pos="5.10" speed="0.00"/>
            </lane>
        </edge>
        <edge id="L1314">
            <lane id="L1314_0">
                <vehicle id="F04_0" pos="5.10" speed="0.00"/>
            </lane>
            <lane id="L1314_1"/>
        </edge>
        <edge id="L1913">
            <lane id="L1913_0"/>
            <lane id="L1913_1">
                <vehicle id="F00_0" pos="5.10" speed="0.00"/>
            </lane>
            <lane id="L1913_2"/>
        </edge>
        <edge id="L2115">
            <lane id="L2115_0">
                <vehicle id="F075_0" pos="5.10" speed="0.00"/>
            </lane>
        </edge>
        <edge id="L2216">
            <lane id="L2216_0">
                <vehicle id="F08_0" pos="5.10" speed="0.00"/>
            </lane>
        </edge>
        <edge id="L2418">
            <lane id="L2418_0"/>
            <lane id="L2418_1">
                <vehicle id="F11_0" pos="5.10" speed="0.00"/>
            </lane>
            <lane id="L2418_2"/>
        </edge>
        <edge id="L2423">
            <lane id="L2423_0"/>
            <lane id="L2423_1">
                <vehicle id="F05_0" pos="5.10" speed="0.00"/>
            </lane>
        </edge>
    </timestep>
    <timestep time="1.00">
        <edge id="L0102">
            <lane id="L0102_0">
                <vehicle id="F02_0" pos="6.53" speed="1.43"/>
            </lane>
            <lane id="L0102_1"/>
        </edge>
        <edge id="L0107">
            <lane id="L0107_0">
                <vehicle id="F01_0" pos="7.31" speed="2.21"/>
            </lane>
            <lane id="L0107_1"/>
            <lane id="L0107_2"/>
        </edge>
        <edge id="L0208">
            <lane id="L0208_0">
                <vehicle id="F06_0" pos="6.46" speed="1.36"/>
            </lane>
        </edge>
        <edge id="L0309">
            <lane id="L0309_0">
                <vehicle id="F07_0" pos="6.80" speed="1.70"/>
            </lane>
        </edge>
        <edge id="L0511">
            <lane id="L0511_0">
                <vehicle id="F09_0" pos="6.96" speed="1.86"/>
            </lane>
        </edge>
        <edge id="L0612">
            <lane id="L0612_0">
                <vehicle id="F13_0" pos="7.17" speed="2.07"/>
            </lane>
            <lane id="L0612_1"/>
            <lane id="L0612_2">
                <vehicle id="F10_0" pos="7.04" speed="1.94"/>
            </lane>
        </edge>
        <edge id="L1211">
            <lane id="L1211_0"/>
            <lane id="L1211_1">
                <vehicle id="F03_0" pos="6.53" speed="1.43"/>
            </lane>
        </edge>
        <edge id="L1314">
            <lane id="L1314_0">
                <vehicle id="F04_0" pos="7.39" speed="2.29"/>
            </lane>
            <lane id="L1314_1"/>
        </edge>
        <edge id="L1913">
            <lane id="L1913_0"/>
            <lane id="L1913_1">
                <vehicle id="F00_0" pos="6.50" speed="1.40"/>
            </lane>
            <lane id="L1913_2"/>
        </edge>
        <edge id="L2115">
            <lane id="L2115_0">
                <vehicle id="F075_0" pos="7.27" speed="2.17"/>
            </lane>
        </edge>
        <edge id="L2216">
            <lane id="L2216_0">
                <vehicle id="F08_0" pos="6.43" speed="1.33"/>
            </lane>
        </edge>
        <edge id="L2418">
            <lane id="L2418_0"/>
            <lane id="L2418_1">
                <vehicle id="F11_0" pos="6.86" speed="1.76"/>
            </lane>
            <lane id="L2418_2"/>
        </edge>
        <edge id="L2423">
            <lane id="L2423_0"/>
            <lane id="L2423_1">
                <vehicle id="F05_0" pos="6.60" speed="1.50"/>
            </lane>
        </edge>
    </timestep>
    <timestep time="2.00">
        <edge id="L0102">
            <lane id="L0102_0">
                <vehicle id="F02_0" pos="10.46" speed="3.93"/>
            </lane>
            <lane id="L0102_1"/>
        </edge>
        <edge id="L0107">
            <lane id="L0107_0">
                <vehicle id="F01_0" pos="11.69" speed="4.39"/>
            </lane>
            <lane id="L0107_1"/>
            <lane id="L0107_2"/>
        </edge>
        <edge id="L0208">
            <lane id="L0208_0">
                <vehicle id="F06_0" pos="9.31" speed="2.85"/>
            </lane>
        </edge>
        <edge id="L0309">
            <lane id="L0309_0">
                <vehicle id="F07_0" pos="10.64" speed="3.85"/>
            </lane>
        </edge>
        <edge id="L0511">
            <lane id="L0511_0">
                <vehicle id="F09_0" pos="11.41" speed="4.45"/>
            </lane>
        </edge>
        <edge id="L0612">
            <lane id="L0612_0">
                <vehicle id="F13_0" pos="10.68" speed="3.51"/>
            </lane>
            <lane id="L0612_1"/>
            <lane id="L0612_2">
                <vehicle id="F10_0" pos="10.34" speed="3.30"/>
            </lane>
        </edge>
        <edge id="L1211">
            <lane id="L1211_0"/>
            <lane id="L1211_1">
                <vehicle id="F03_0" pos="10.01" speed="3.48"/>
            </lane>
        </edge>
        <edge id="L1314">
            <lane id="L1314_0">
                <vehicle id="F04_0" pos="12.25" speed="4.87"/>
            </lane>
            <lane id="L1314_1"/>
        </edge>
        <edge id="L1913">
            <lane id="L1913_0"/>
            <lane id="L1913_1">
                <vehicle id="F00_0" pos="9.71" speed="3.21"/>
            </lane>
            <lane id="L1913_2"/>
        </edge>
        <edge id="L2115">
            <lane id="L2115_0">
                <vehicle id="F075_0" pos="10.76" speed="3.49"/>
            </lane>
        </edge>
        <edge id="L2216">
            <lane id="L2216_0">
                <vehicle id="F08_0" pos="9.25" speed="2.82"/>
            </lane>
        </edge>
        <edge id="L2418">
            <lane id="L2418_0"/>
            <lane id="L2418_1">
                <vehicle id="F11_0" pos="10.18" speed="3.33"/>
            </lane>
            <lane id="L2418_2"/>
        </edge>
        <edge id="L2423">
            <lane id="L2423_0"/>
            <lane id="L2423_1">
                <vehicle id="F05_0" pos="9.53" speed="2.92"/>
            </lane>
        </edge>
    </timestep>
    <timestep time="3.00">
        <edge id="L0102">
            <lane id="L0102_0">
                <vehicle id="F02_0" pos="16.70" speed="6.24"/>
            </lane>
            <lane id="L0102_1"/>
        </edge>
        <edge id="L0107">
            <lane id="L0107_0">
                <vehicle id="F01_1" pos="5.10" speed="0.00"/>
                <vehicle id="F01_0" pos="17.52" speed="5.83"/>
            </lane>
            <lane id="L0107_1"/>
            <lane id="L0107_2"/>
        </edge>
        <edge id="L0208">
            <lane id="L0208_0">
                <vehicle id="F06_0" pos="13.77" speed="4.46"/>
            </lane>
        </edge>
        <edge id="L0309">
            <lane id="L0309_0">
                <vehicle id="F07_0" pos="15.92" speed="5.28"/>
            </lane>
        </edge>
        <edge id="L0511">
            <lane id="L0511_0">
                <vehicle id="F09_0" pos="17.68" speed="6.27"/>
            </lane>
        </edge>
        <edge id="L0612">
            <lane id="L0612_0">
                <vehicle id="F13_0" pos="15.88" speed="5.20"/>
            </lane>
            <lane id="L0612_1"/>
            <lane id="L0612_2">
                <vehicle id="F10_0" pos="15.35" speed="5.01"/>
            </lane>
        </edge>
        <edge id="L1211">
            <lane id="L1211_0"/>
            <lane id="L1211_1">
                <vehicle id="F03_0" pos="15.39" speed="5.38"/>
            </lane>
        </edge>
        <edge id="L1314">
            <lane id="L1314_0">
                <vehicle id="F04_0" pos="19.66" speed="7.41"/>
            </lane>
            <lane id="L1314_1"/>
        </edge>
        <edge id="L1913">
            <lane id="L1913_0"/>
            <lane id="L1913_1">
                <vehicle id="F00_0" pos="15.19" speed="5.49"/>
            </lane>
            <lane id="L1913_2">
                <vehicle id="F00_1" pos="5.10" speed="0.00"/>
            </lane>
        </edge>
        <edge id="L2115">
            <lane id="L2115_0">
                <vehicle id="F075_0" pos="16.51" speed="5.75"/>
            </lane>
        </edge>
        <edge id="L2216">
            <lane id="L2216_0">
                <vehicle id="F08_0" pos="13.79" speed="4.54"/>
            </lane>
        </edge>
        <edge id="L2418">
            <lane id="L2418_0"/>
            <lane id="L2418_1">
                <vehicle id="F11_0" pos="16.03" speed="5.85"/>
            </lane>
            <lane id="L2418_2"/>
        </edge>
        <edge id="L2423">
            <lane id="L2423_0"/>
            <lane id="L2423_1">
                <vehicle id="F05_0" pos="14.98" speed="5.45"/>
            </lane>
        </edge>
    </timestep>
    <timestep time="4.00">
        <edge id="L0102">
            <lane id="L0102_0">
                <vehicle id="F02_0" pos="24.27" speed="7.57"/>
            </lane>
            <lane id="L0102_1"/>
        </edge>
        <edge id="L0107">
            <lane id="L0107_0">
                <vehicle id="F01_1" pos="7.15" speed="2.05"/>
                <vehicle id="F01_0" pos="24.78" speed="7.26"/>
            </lane>
            <lane id="L0107_1"/>
            <lane id="L0107_2"/>
        </edge>
        <edge id="L0208">
            <lane id="L0208_0">
                <vehicle id="F06_0" pos="20.76" speed="6.98"/>
            </lane>
        </edge>
        <edge id="L0309">
            <lane id="L0309_0">
                <vehicle id="F07_0" pos="22.65" speed="6.73"/>
            </lane>
        </edge>
        <edge id="L0511">
            <lane id="L0511_0">
                <vehicle id="F09_0" pos="25.86" speed="8.18"/>
            </lane>
        </edge>
        <edge id="L0612">
            <lane id="L0612_0">
                <vehicle id="F13_0" pos="22.59" speed="6.71"/>
            </lane>
            <lane id="L0612_1">
                <vehicle id="F13_1" pos="5.10" speed="0.00"/>
            </lane>
            <lane id="L0612_2">
                <vehicle id="F10_0" pos="22.69" speed="7.35"/>
            </lane>
        </edge>
        <edge id="L1211">
            <lane id="L1211_0"/>
            <lane id="L1211_1">
                <vehicle id="F03_0" pos="23.26" speed="7.87"/>
            </lane>
        </edge>
        <edge id="L1314">
            <lane id="L1314_0">
                <vehicle id="F04_0" pos="29.56" speed="9.90"/>
            </lane>
            <lane id="L1314_1"/>
        </edge>
        <edge id="L1913">
            <lane id="L1913_0"/>
            <lane id="L1913_1">
                <vehicle id="F00_2" pos="5.10" speed="0.00"/>
                <vehicle id="F00_0" pos="23.13" speed="7.94"/>
            </lane>
            <lane id="L1913_2">
                <vehicle id="F00_1" pos="7.51" speed="2.41"/>
            </lane>
        </edge>
        <edge id="L2115">
            <lane id="L2115_0">
                <vehicle id="F075_0" pos="24.71" speed="8.19"/>
            </lane>
        </edge>
        <edge id="L2216">
            <lane id="L2216_0">
                <vehicle id="F08_0" pos="20.26" speed="6.46"/>
            </lane>
        </edge>
        <edge id="L2418">
            <lane id="L2418_0"/>
            <lane id="L2418_1">
                <vehicle id="F11_0" pos="23.81" speed="7.78"/>
            </lane>
            <lane id="L2418_2"/>
        </edge>
        <edge id="L2423">
            <lane id="L2423_0"/>
            <lane id="L2423_1">
                <vehicle id="F05_0" pos="22.67" speed="7.69"/>
            </lane>
        </edge>
    </timestep>
    <timestep time="5.00">
        <edge id="L0102">
            <lane id="L0102_0">
                <vehicle id="F02_0" pos="34.44" speed="10.17"/>
            </lane>
            <lane id="L0102_1"/>
        </edge>
        <edge id="L0107">
            <lane id="L0107_0">
                <vehicle id="F01_1" pos="11.13" speed="3.98"/>
                <vehicle id="F01_0" pos="33.84" speed="9.06"/>
            </lane>
            <lane id="L0107_1"/>
            <lane id="L0107_2"/>
        </edge>
        <edge id="L0208">
            <lane id="L0208_0">
                <vehicle id="F06_0" pos="29.64" speed="8.88"/>
            </lane>
        </edge>
        <edge id="L0309">
            <lane id="L0309_0">
                <vehicle id="F07_0" pos="30.85" speed="8.20"/>
            </lane>
        </edge>
        <edge id="L0511">
            <lane id="L0511_0">
                <vehicle id="F09_0" pos="35.70" speed="9.83"/>
            </lane>
        </edge>
        <edge id="L0612">
            <lane id="L0612_0">
                <vehicle id="F13_0" pos="31.07" speed="8.48"/>
            </lane>
            <lane id="L0612_1">
                <vehicle id="F13_1" pos="7.35" speed="2.25"/>
            </lane>
            <lane id="L0612_2">
                <vehicle id="F10_0" pos="31.35" speed="8.66"/>
            </lane>
        </edge>
        <edge id="L1211">
            <lane id="L1211_0"/>
            <lane id="L1211_1">
                <vehicle id="F03_0" pos="32.62" speed="9.36"/>
            </lane>
        </edge>
        <edge id="L1314">
            <lane id="L1314_0">
                <vehicle id="F04_0" pos="41.28" speed="11.72"/>
            </lane>
            <lane id="L1314_1"/>
        </edge>
        <edge id="L1913">
            <lane id="L1913_0"/>
            <lane id="L1913_1">
                <vehicle id="F00_2" pos="6.48" speed="1.38"/>
                <vehicle id="F00_0" pos="32.41" speed="9.28"/>
            </lane>
            <lane id="L1913_2">
                <vehicle id="F00_1" pos="11.95" speed="4.45"/>
            </lane>
        </edge>
        <edge id="L2115">
            <lane id="L2115_0">
                <vehicle id="F075_0" pos="35.07" speed="10.37"/>
            </lane>
        </edge>
        <edge id="L2216">
            <lane id="L2216_0">
                <vehicle id="F08_0" pos="28.22" speed="7.96"/>
            </lane>
        </edge>
        <edge id="L2418">
            <lane id="L2418_0"/>
            <lane id="L2418_1">
                <vehicle id="F11_0" pos="33.89" speed="10.08"/>
            </lane>
            <lane id="L2418_2"/>
        </edge>
        <edge id="L2423">
            <lane id="L2423_0"/>
            <lane id="L2423_1">
                <vehicle id="F05_0" pos="32.66" speed="9.99"/>
            </lane>
        </edge>
    </timestep>
    <timestep time="6.00">
        <edge id="L0102">
            <lane id="L0102_0">
                <vehicle id="F02_0" pos="46.33" speed="11.89"/>
            </lane>
            <lane id="L0102_1"/>
        </edge>
        <edge id="L0107">
            <lane id="L0107_0">
                <vehicle id="F01_2" pos="5.10" speed="0.00"/>
                <vehicle id="F01_1" pos="16.47" speed="5.34"/>
                <vehicle id="F01_0" pos="44.65" speed="10.82"/>
            </lane>
            <lane id="L0107_1"/>
            <lane id="L0107_2"/>
        </edge>
        <edge id="L0208">
            <lane id="L0208_0">
                <vehicle id="F06_0" pos="39.84" speed="10.20"/>
            </lane>
        </edge>
        <edge id="L0309">
            <lane id="L0309_0">
                <vehicle id="F07_0" pos="40.96" speed="10.11"/>
            </lane>
        </edge>
        <edge id="L0511">
            <lane id="L0511_0">
                <vehicle id="F09_0" pos="46.60" speed="10.91"/>
            </lane>
        </edge>
        <edge id="L0612">
            <lane id="L0612_0">
                <vehicle id="F13_0" pos="40.89" speed="9.82"/>
            </lane>
            <lane id="L0612_1">
                <vehicle id="F13_1" pos="12.01" speed="4.66"/>
            </lane>
            <lane id="L0612_2">
                <vehicle id="F10_0" pos="42.54" speed="11.19"/>
            </lane>
        </edge>
        <edge id="L1211">
            <lane id="L1211_0"/>
            <lane id="L1211_1">
                <vehicle id="F03_0" pos="44.39" speed="11.77"/>
            </lane>
        </edge>
        <edge id="L1314">
            <lane id="L1314_0">
                <vehicle id="F04_0" pos="55.55" speed="14.26"/>
            </lane>
            <lane id="L1314_1"/>
        </edge>
        <edge id="L1913">
            <lane id="L1913_0">
                <vehicle id="F00_3" pos="5.10" speed="0.00"/>
            </lane>
            <lane id="L1913_1">
                <vehicle id="F00_2" pos="9.48" speed="2.99"/>
                <vehicle id="F00_0" pos="43.24" speed="10.82"/>
            </lane>
            <lane id="L1913_2">
                <vehicle id="F00_1" pos="18.26" speed="6.31"/>
            </lane>
        </edge>
        <edge id="L2115">
            <lane id="L2115_0">
                <vehicle id="F075_0" pos="45.23" speed="10.16"/>
            </lane>
        </edge>
        <edge id="L2216">
            <lane id="L2216_0">
                <vehicle id="F08_0" pos="37.72" speed="9.51"/>
            </lane>
        </edge>
        <edge id="L2418">
            <lane id="L2418_0"/>
            <lane id="L2418_1">
                <vehicle id="F11_0" pos="46.42" speed="12.53"/>
            </lane>
            <lane id="L2418_2"/>
        </edge>
        <edge id="L2423">
            <lane id="L2423_0"/>
            <lane id="L2423_1">
                <vehicle id="F05_0" pos="45.22" speed="12.57"/>
            </lane>
        </edge>
    </timestep>
    <timestep time="7.00">
        <edge id="L0102">
            <lane id="L0102_0">
                <vehicle id="F02_0" pos="60.59" speed="14.26"/>
            </lane>
            <lane id="L0102_1"/>
        </edge>
        <edge id="L0107">
            <lane id="L0107_0">
                <vehicle id="F01_2" pos="6.48" speed="1.38"/>
                <vehicle id="F01_1" pos="24.25" speed="7.78"/>
                <vehicle id="F01_0" pos="57.28" speed="12.62"/>
            </lane>
            <lane id="L0107_1"/>
            <lane id="L0107_2"/>
        </edge>
        <edge id="L0208">
            <lane id="L0208_0">
                <vehicle id="F06_0" pos="50.93" speed="11.09"/>
            </lane>
        </edge>
        <edge id="L0309">
            <lane id="L0309_0">
                <vehicle id="F07_0" pos="51.75" speed="10.80"/>
            </lane>
        </edge>
        <edge id="L0511">
            <lane id="L0511_0">
                <vehicle id="F09_0" pos="56.73" speed="10.13"/>
            </lane>
        </edge>
        <edge id="L0612">
            <lane id="L0612_0">
                <vehicle id="F13_0" pos="52.11" speed="11.21"/>
            </lane>
            <lane id="L0612_1">
                <vehicle id="F13_1" pos="18.59" speed="6.58"/>
            </lane>
            <lane id="L0612_2">
                <vehicle id="F10_0" pos="56.18" speed="13.63"/>
            </lane>
        </edge>
        <edge id="L1211">
            <lane id="L1211_0"/>
            <lane id="L1211_1">
                <vehicle id="F03_0" pos="58.43" speed="14.04"/>
            </lane>
        </edge>
        <edge id="L1314">
            <lane id="L1314_0">
                <vehicle id="F04_0" pos="71.09" speed="15.54"/>
            </lane>
            <lane id="L1314_1"/>
        </edge>
        <edge id="L1913">
            <lane id="L1913_0">
                <vehicle id="F00_3" pos="7.03" speed="1.93"/>
            </lane>
            <lane id="L1913_1">
                <vehicle id="F00_2" pos="14.35" speed="4.87"/>
                <vehicle id="F00_0" pos="55.37" speed="12.13"/>
            </lane>
            <lane id="L1913_2">
                <vehicle id="F00_1" pos="26.46" speed="8.20"/>
            </lane>
        </edge>
        <edge id="L2115">
            <lane id="L2115_0">
                <vehicle id="F075_0" pos="56.26" speed="11.04"/>
            </lane>
        </edge>
        <edge id="L2216">
            <lane id="L2216_0">
                <vehicle id="F08_0" pos="47.79" speed="10.06"/>
            </lane>
        </edge>
        <edge id="L2418">
            <lane id="L2418_0"/>
            <lane id="L2418_1">
                <vehicle id="F11_0" pos="61.00" speed="14.58"/>
            </lane>
            <lane id="L2418_2"/>
        </edge>
        <edge id="L2423">
            <lane id="L2423_0"/>
            <lane id="L2423_1">
                <vehicle id="F05_0" pos="60.20" speed="14.97"/>
            </lane>
        </edge>
    </timestep>
    <timestep time="8.00">
        <edge id="L0102">
            <lane id="L0102_0">
                <vehicle id="F02_0" pos="75.51" speed="14.92"/>
            </lane>
            <lane id="L0102_1"/>
        </edge>
        <edge id="L0107">
            <lane id="L0107_0">
                <vehicle id="F01_2" pos="9.60" speed="3.12"/>
                <vehicle id="F01_1" pos="34.08" speed="9.83"/>
                <vehicle id="F01_0" pos="71.30" speed="14.02"/>
            </lane>
            <lane id="L0107_1"/>
            <lane id="L0107_2"/>
        </edge>
        <edge id="L0208">
            <lane id="L0208_0">
                <vehicle id="F06_0" pos="60.86" speed="9.93"/>
            </lane>
        </edge>
        <edge id="L0309">
            <lane id="L0309_0">
                <vehicle id="F07_0" pos="62.83" speed="11.07"/>
            </lane>
        </edge>
        <edge id="L0511">
            <lane id="L0511_0">
                <vehicle id="F09_0" pos="67.66" speed="10.93"/>
            </lane>
        </edge>
        <edge id="L0612">
            <lane id="L0612_0">
                <vehicle id="F13_0" pos="64.79" speed="12.68"/>
            </lane>
            <lane id="L0612_1">
                <vehicle id="F13_2" pos="5.10" speed="0.00"/>
                <vehicle id="F13_1" pos="27.53" speed="8.93"/>
            </lane>
            <lane id="L0612_2">
                <vehicle id="F10_0" pos="71.21" speed="15.03"/>
            </lane>
        </edge>
        <edge id="L1211">
            <lane id="L1211_0"/>
            <lane id="L1211_1">
                <vehicle id="F03_0" pos="73.65" speed="15.22"/>
            </lane>
        </edge>
        <edge id="L1314">
            <lane id="L1314_0">
                <vehicle id="F04_0" pos="85.81" speed="14.72"/>
            </lane>
            <lane id="L1314_1"/>
        </edge>
        <edge id="L1913">
            <lane id="L1913_0">
                <vehicle id="F00_3" pos="11.18" speed="4.16"/>
            </lane>
            <lane id="L1913_1">
                <vehicle id="F00_2" pos="20.61" speed="6.26"/>
                <vehicle id="F00_0" pos="69.60" speed="14.23"/>
            </lane>
            <lane id="L1913_2">
                <vehicle id="F00_1" pos="36.93" speed="10.48"/>
            </lane>
        </edge>
        <edge id="L2115">
            <lane id="L2115_0">
                <vehicle id="F075_0" pos="67.07" speed="10.80"/>
            </lane>
        </edge>
        <edge id="L2216">
            <lane id="L2216_0">
                <vehicle id="F08_0" pos="57.95" speed="10.17"/>
            </lane>
        </edge>
        <edge id="L2418">
            <lane id="L2418_0"/>
            <lane id="L2418_1">
                <vehicle id="F11_0" pos="77.05" speed="16.05"/>
            </lane>
            <lane id="L2418_2"/>
        </edge>
        <edge id="L2423">
            <lane id="L2423_0"/>
            <lane id="L2423_1">
                <vehicle id="F05_0" pos="74.60" speed="14.41"/>
            </lane>
        </edge>
    </timestep>
    <timestep time="9.00">
        <edge id="L0102">
            <lane id="L0102_0">
                <vehicle id="F02_0" pos="90.50" speed="14.99"/>
            </lane>
            <lane id="L0102_1"/>
        </edge>
        <edge id="L0107">
            <lane id="L0107_0">
                <vehicle id="F01_2" pos="14.19" speed="4.59"/>
                <vehicle id="F01_1" pos="46.07" speed="11.99"/>
                <vehicle id="F01_0" pos="86.97" speed="15.67"/>
            </lane>
            <lane id="L0107_1"/>
            <lane id="L0107_2">
                <vehicle id="F01_3" pos="5.10" speed="0.00"/>
            </lane>
        </edge>
        <edge id="L0208">
            <lane id="L0208_0">
                <vehicle id="F06_0" pos="71.78" speed="10.92"/>
            </lane>
        </edge>
        <edge id="L0309">
            <lane id="L0309_0">
                <vehicle id="F07_0" pos="73.97" speed="11.15"/>
            </lane>
        </edge>
        <edge id="L0511">
            <lane id="L0511_0">
                <vehicle id="F09_0" pos="77.75" speed="10.10"/>
            </lane>
        </edge>
        <edge id="L0612">
            <lane id="L0612_0">
                <vehicle id="F13_0" pos="78.94" speed="14.16"/>
            </lane>
            <lane id="L0612_1">
                <vehicle id="F13_2" pos="7.49" speed="2.39"/>
                <vehicle id="F13_1" pos="38.48" speed="10.96"/>
            </lane>
            <lane id="L0612_2">
                <vehicle id="F10_0" pos="88.32" speed="17.11"/>
            </lane>
        </edge>
        <edge id="L1211">
            <lane id="L1211_0"/>
            <lane id="L1211_1">
                <vehicle id="F03_0" pos="88.62" speed="14.97"/>
            </lane>
        </edge>
        <edge id="L1314">
            <lane id="L1314_0">
                <vehicle id="F04_0" pos="100.69" speed="14.88"/>
            </lane>
            <lane id="L1314_1"/>
        </edge>
        <edge id="L1913">
            <lane id="L1913_0">
                <vehicle id="F00_4" pos="5.10" speed="0.00"/>
                <vehicle id="F00_3" pos="17.63" speed="6.45"/>
            </lane>
            <lane id="L1913_1">
                <vehicle id="F00_2" pos="29.17" speed="8.56"/>
                <vehicle id="F00_0" pos="85.37" speed="15.78"/>
            </lane>
            <lane id="L1913_2">
                <vehicle id="F00_1" pos="49.25" speed="12.31"/>
            </lane>
        </edge>
        <edge id="L2115">
            <lane id="L2115_0">
                <vehicle id="F075_0" pos="77.58" speed="10.52"/>
            </lane>
        </edge>
        <edge id="L2216">
            <lane id="L2216_0">
                <vehicle id="F08_0" pos="68.36" speed="10.41"/>
            </lane>
        </edge>
        <edge id="L2418">
            <lane id="L2418_0"/>
            <lane id="L2418_1">
                <vehicle id="F11_0" pos="95.06" speed="18.01"/>
            </lane>
            <lane id="L2418_2"/>
        </edge>
        <edge id="L2423">
            <lane id="L2423_0"/>
            <lane id="L2423_1">
                <vehicle id="F05_0" pos="89.85" speed="15.25"/>
            </lane>
        </edge>
    </timestep>
    <timestep time="10.00">
        <edge id="L0102">
            <lane id="L0102_0">
                <vehicle id="F02_1" pos="5.10" speed="0.00"/>
                <vehicle id="F02_0" pos="104.90" speed="14.40"/>
            </lane>
            <lane id="L0102_1"/>
        </edge>
        <edge id="L0107">
            <lane id="L0107_0">
                <vehicle id="F01_2" pos="21.21" speed="7.02"/>
                <vehicle id="F01_1" pos="59.78" speed="13.72"/>
                <vehicle id="F01_0" pos="104.05" speed="17.08"/>
            </lane>
            <lane id="L0107_1"/>
            <lane id="L0107_2">
                <vehicle id="F01_3" pos="7.35" speed="2.25"/>
            </lane>
        </edge>
        <edge id="L0208">
            <lane id="L0208_0">
                <vehicle id="F06_0" pos="81.90" speed="10.12"/>
            </lane>
        </edge>
        <edge id="L0309">
            <lane id="L0309_0">