<?xml version="1.0"?>

<<<<<<< HEAD
<<<<<<< HEAD
<<<<<<< HEAD
<!-- generated on 4/17/2013 5:11:45 PM by SUMO gui Version 0.16.0
=======
<!-- generated on Wed Apr 17 17:20:19 2013 by SUMO sumo Version 0.16.0
>>>>>>> 5f387c580a3e23a6b3436f6bfe5f13047faf5a23
=======
<!-- generated on Wed Apr 17 17:25:03 2013 by SUMO sumo Version 0.16.0
>>>>>>> 6012d6d0722253ec0301fda39f2649d85efc4a0a
=======
<!-- generated on Wed Apr 17 17:30:03 2013 by SUMO sumo Version 0.16.0
>>>>>>> 4f09d9ba0b1acf4c08593e7c121773d53f253672
<?xml version="1.0" encoding="UTF-8"?>

<configuration xmlns:xsi="http://www.w3.org/2001/XMLSchema-instance" xsi:noNamespaceSchemaLocation="http://sumo.sf.net/xsd/sumo-gui.exeConfiguration.xsd">

    <input>
        <net-file value="C:\Users\Michael\Documents\GitHub\route_alert\SUMO\run01\../grid6_4.net.xml"/>
        <route-files value="C:\Users\Michael\Documents\GitHub\route_alert\SUMO\run01\grid6_4.rou.xml"/>
    </input>

    <output>
        <netstate-dump value="C:\Users\Michael\Documents\GitHub\route_alert\SUMO\run01\netstate6_4.xml"/>
    </output>

    <time>
        <begin value="0"/>
        <end value="200"/>
    </time>

    <processing>
        <time-to-teleport value="-1"/>
    </processing>

</configuration>
-->

<sumo-netstate>
    <timestep time="0.00">
        <edge id="L0102">
            <lane id="L0102_0">
                <vehicle id="F02_0" pos="5.10" speed="0.00"/>
            </lane>
            <lane id="L0102_1"/>
        </edge>
        <edge id="L0107">
            <lane id="L0107_0">
                <vehicle id="F01_0" pos="5.10" speed="0.00"/>
            </lane>
            <lane id="L0107_1"/>
            <lane id="L0107_2"/>
        </edge>
        <edge id="L0208">
            <lane id="L0208_0">
                <vehicle id="F06_0" pos="5.10" speed="0.00"/>
            </lane>
        </edge>
        <edge id="L0309">
            <lane id="L0309_0">
                <vehicle id="F07_0" pos="5.10" speed="0.00"/>
            </lane>
        </edge>
        <edge id="L0511">
            <lane id="L0511_0">
                <vehicle id="F09_0" pos="5.10" speed="0.00"/>
            </lane>
        </edge>
        <edge id="L0612">
            <lane id="L0612_0"/>
            <lane id="L0612_1"/>
            <lane id="L0612_2">
                <vehicle id="F10_0" pos="5.10" speed="0.00"/>
            </lane>
        </edge>
        <edge id="L1211">
            <lane id="L1211_0"/>
            <lane id="L1211_1">
                <vehicle id="F03_0" pos="5.10" speed="0.00"/>
            </lane>
        </edge>
        <edge id="L1314">
            <lane id="L1314_0">
                <vehicle id="F04_0" pos="5.10" speed="0.00"/>
            </lane>
            <lane id="L1314_1"/>
        </edge>
        <edge id="L1812">
            <lane id="L1812_0">
                <vehicle id="F11_0" pos="5.10" speed="0.00"/>
            </lane>
            <lane id="L1812_1"/>
            <lane id="L1812_2"/>
        </edge>
        <edge id="L1913">
            <lane id="L1913_0"/>
            <lane id="L1913_1">
                <vehicle id="F00_0" pos="5.10" speed="0.00"/>
            </lane>
            <lane id="L1913_2"/>
        </edge>
        <edge id="L2115">
            <lane id="L2115_0">
                <vehicle id="F075_0" pos="5.10" speed="0.00"/>
            </lane>
        </edge>
        <edge id="L2216">
            <lane id="L2216_0">
                <vehicle id="F08_0" pos="5.10" speed="0.00"/>
            </lane>
        </edge>
<<<<<<< HEAD
        <edge id="L2418">
            <lane id="L2418_0"/>
            <lane id="L2418_1">
                <vehicle id="F11_0" pos="5.10" speed="0.00"/>
            </lane>
            <lane id="L2418_2"/>
        </edge>
=======
>>>>>>> 6012d6d0722253ec0301fda39f2649d85efc4a0a
        <edge id="L2423">
            <lane id="L2423_0"/>
            <lane id="L2423_1">
                <vehicle id="F05_0" pos="5.10" speed="0.00"/>
            </lane>
        </edge>
    </timestep>
    <timestep time="1.00">
        <edge id="L0102">
            <lane id="L0102_0">
                <vehicle id="F02_0" pos="7.04" speed="1.94"/>
            </lane>
            <lane id="L0102_1"/>
        </edge>
        <edge id="L0107">
            <lane id="L0107_0">
                <vehicle id="F01_0" pos="6.53" speed="1.43"/>
            </lane>
            <lane id="L0107_1"/>
            <lane id="L0107_2"/>
        </edge>
        <edge id="L0208">
            <lane id="L0208_0">
                <vehicle id="F06_0" pos="7.17" speed="2.07"/>
            </lane>
        </edge>
        <edge id="L0309">
            <lane id="L0309_0">
                <vehicle id="F07_0" pos="7.31" speed="2.21"/>
            </lane>
        </edge>
        <edge id="L0511">
            <lane id="L0511_0">
                <vehicle id="F09_0" pos="6.53" speed="1.43"/>
            </lane>
        </edge>
        <edge id="L0612">
            <lane id="L0612_0"/>
            <lane id="L0612_1"/>
            <lane id="L0612_2">
                <vehicle id="F10_0" pos="7.39" speed="2.29"/>
            </lane>
        </edge>
        <edge id="L1211">
            <lane id="L1211_0"/>
            <lane id="L1211_1">
                <vehicle id="F03_0" pos="6.50" speed="1.40"/>
            </lane>
        </edge>
        <edge id="L1314">
            <lane id="L1314_0">
                <vehicle id="F04_0" pos="6.86" speed="1.76"/>
            </lane>
            <lane id="L1314_1"/>
        </edge>
        <edge id="L1812">
            <lane id="L1812_0">
                <vehicle id="F11_0" pos="7.64" speed="2.54"/>
            </lane>
            <lane id="L1812_1"/>
            <lane id="L1812_2"/>
        </edge>
        <edge id="L1913">
<<<<<<< HEAD
            <lane id="L1913_0"/>
            <lane id="L1913_1">
                <vehicle id="F00_0" pos="6.60" speed="1.50"/>
=======
            <lane id="L1913_0">
                <vehicle id="F00_0" pos="6.77" speed="1.67"/>
>>>>>>> 6012d6d0722253ec0301fda39f2649d85efc4a0a
            </lane>
            <lane id="L1913_2"/>
        </edge>
        <edge id="L2115">
            <lane id="L2115_0">
                <vehicle id="F075_0" pos="6.46" speed="1.36"/>
            </lane>
        </edge>
        <edge id="L2216">
            <lane id="L2216_0">
                <vehicle id="F08_0" pos="6.80" speed="1.70"/>
            </lane>
        </edge>
<<<<<<< HEAD
        <edge id="L2418">
            <lane id="L2418_0"/>
            <lane id="L2418_1">
                <vehicle id="F11_0" pos="7.01" speed="1.91"/>
            </lane>
            <lane id="L2418_2"/>
        </edge>
=======
>>>>>>> 6012d6d0722253ec0301fda39f2649d85efc4a0a
        <edge id="L2423">
            <lane id="L2423_0"/>
            <lane id="L2423_1">
                <vehicle id="F05_0" pos="7.46" speed="2.36"/>
            </lane>
        </edge>
    </timestep>
    <timestep time="2.00">
        <edge id="L0102">
            <lane id="L0102_0">
                <vehicle id="F02_0" pos="11.03" speed="3.99"/>
            </lane>
            <lane id="L0102_1"/>
        </edge>
        <edge id="L0107">
            <lane id="L0107_0">
                <vehicle id="F01_0" pos="10.55" speed="4.01"/>
            </lane>
            <lane id="L0107_1"/>
            <lane id="L0107_2"/>
        </edge>
        <edge id="L0208">
            <lane id="L0208_0">
                <vehicle id="F06_0" pos="10.60" speed="3.43"/>
            </lane>
        </edge>
        <edge id="L0309">
            <lane id="L0309_0">
                <vehicle id="F07_0" pos="10.95" speed="3.65"/>
            </lane>
        </edge>
        <edge id="L0511">
            <lane id="L0511_0">
                <vehicle id="F09_0" pos="10.14" speed="3.61"/>
            </lane>
        </edge>
        <edge id="L0612">
            <lane id="L0612_0"/>
            <lane id="L0612_1"/>
            <lane id="L0612_2">
                <vehicle id="F10_0" pos="11.49" speed="4.10"/>
            </lane>
        </edge>
        <edge id="L1211">
            <lane id="L1211_0"/>
            <lane id="L1211_1">
                <vehicle id="F03_0" pos="9.47" speed="2.97"/>
            </lane>
        </edge>
        <edge id="L1314">
            <lane id="L1314_0">
                <vehicle id="F04_0" pos="10.03" speed="3.18"/>
            </lane>
            <lane id="L1314_1"/>
        </edge>
        <edge id="L1812">
            <lane id="L1812_0">
                <vehicle id="F11_0" pos="12.44" speed="4.80"/>
            </lane>
            <lane id="L1812_1"/>
            <lane id="L1812_2"/>
        </edge>
        <edge id="L1913">
<<<<<<< HEAD
            <lane id="L1913_0"/>
=======
            <lane id="L1913_0">
                <vehicle id="F00_0" pos="10.31" speed="3.54"/>
            </lane>
<<<<<<< HEAD
>>>>>>> 6012d6d0722253ec0301fda39f2649d85efc4a0a
            <lane id="L1913_1">
                <vehicle id="F00_0" pos="9.44" speed="2.84"/>
            </lane>
=======
            <lane id="L1913_1"/>
>>>>>>> 4f09d9ba0b1acf4c08593e7c121773d53f253672
            <lane id="L1913_2"/>
        </edge>
        <edge id="L2115">
            <lane id="L2115_0">
                <vehicle id="F075_0" pos="10.32" speed="3.86"/>
            </lane>
        </edge>
        <edge id="L2216">
            <lane id="L2216_0">
                <vehicle id="F08_0" pos="9.99" speed="3.19"/>
            </lane>
        </edge>
<<<<<<< HEAD
        <edge id="L2418">
            <lane id="L2418_0"/>
            <lane id="L2418_1">
                <vehicle id="F11_0" pos="11.10" speed="4.09"/>
            </lane>
            <lane id="L2418_2"/>
        </edge>
=======
>>>>>>> 6012d6d0722253ec0301fda39f2649d85efc4a0a
        <edge id="L2423">
            <lane id="L2423_0"/>
            <lane id="L2423_1">
                <vehicle id="F05_0" pos="11.68" speed="4.22"/>
            </lane>
        </edge>
    </timestep>
    <timestep time="3.00">
        <edge id="L0102">
            <lane id="L0102_0">
<<<<<<< HEAD
                <vehicle id="F02_0" pos="17.56" speed="6.53"/>
=======
                <vehicle id="F02_0" pos="19.41" speed="7.21"/>
>>>>>>> 4f09d9ba0b1acf4c08593e7c121773d53f253672
            </lane>
            <lane id="L0102_1"/>
        </edge>
        <edge id="L0107">
            <lane id="L0107_0">
<<<<<<< HEAD
                <vehicle id="F01_0" pos="16.84" speed="6.29"/>
            </lane>
            <lane id="L0107_1"/>
            <lane id="L0107_2">
                <vehicle id="F01_1" pos="5.10" speed="0.00"/>
            </lane>
        </edge>
        <edge id="L0208">
            <lane id="L0208_0">
                <vehicle id="F06_0" pos="15.92" speed="5.32"/>
=======
                <vehicle id="F01_0" pos="15.03" speed="4.95"/>
            </lane>
            <lane id="L0107_1"/>
            <lane id="L0107_2"/>
        </edge>
        <edge id="L0208">
            <lane id="L0208_0">
                <vehicle id="F06_0" pos="16.00" speed="5.18"/>
>>>>>>> 4f09d9ba0b1acf4c08593e7c121773d53f253672
            </lane>
        </edge>
        <edge id="L0309">
            <lane id="L0309_0">
<<<<<<< HEAD
                <vehicle id="F07_0" pos="16.31" speed="5.36"/>
=======
                <vehicle id="F07_0" pos="16.96" speed="6.39"/>
>>>>>>> 4f09d9ba0b1acf4c08593e7c121773d53f253672
            </lane>
        </edge>
        <edge id="L0511">
            <lane id="L0511_0">
<<<<<<< HEAD
                <vehicle id="F09_0" pos="15.43" speed="5.29"/>
            </lane>
        </edge>
        <edge id="L0612">
            <lane id="L0612_0"/>
=======
                <vehicle id="F09_0" pos="18.14" speed="6.08"/>
            </lane>
        </edge>
        <edge id="L0612">
            <lane id="L0612_0">
                <vehicle id="F10_0" pos="19.30" speed="6.93"/>
            </lane>
>>>>>>> 4f09d9ba0b1acf4c08593e7c121773d53f253672
            <lane id="L0612_1"/>
            <lane id="L0612_2">
                <vehicle id="F10_0" pos="18.11" speed="6.62"/>
            </lane>
        </edge>
        <edge id="L1211">
<<<<<<< HEAD
            <lane id="L1211_0"/>
            <lane id="L1211_1">
                <vehicle id="F03_0" pos="14.96" speed="5.50"/>
=======
            <lane id="L1211_0">
                <vehicle id="F03_0" pos="16.08" speed="5.85"/>
>>>>>>> 4f09d9ba0b1acf4c08593e7c121773d53f253672
            </lane>
        </edge>
        <edge id="L1314">
            <lane id="L1314_0">
<<<<<<< HEAD
                <vehicle id="F04_0" pos="15.62" speed="5.59"/>
=======
                <vehicle id="F04_0" pos="18.32" speed="6.78"/>
>>>>>>> 4f09d9ba0b1acf4c08593e7c121773d53f253672
            </lane>
            <lane id="L1314_1"/>
        </edge>
        <edge id="L1812">
            <lane id="L1812_0">
                <vehicle id="F11_0" pos="19.13" speed="6.69"/>
            </lane>
            <lane id="L1812_1"/>
            <lane id="L1812_2"/>
        </edge>
        <edge id="L1913">
<<<<<<< HEAD
            <lane id="L1913_0"/>
=======
            <lane id="L1913_0">
                <vehicle id="F00_0" pos="15.93" speed="5.62"/>
            </lane>
>>>>>>> 6012d6d0722253ec0301fda39f2649d85efc4a0a
            <lane id="L1913_1">
                <vehicle id="F00_1" pos="5.10" speed="0.00"/>
<<<<<<< HEAD
                <vehicle id="F00_0" pos="13.77" speed="4.33"/>
=======
>>>>>>> 4f09d9ba0b1acf4c08593e7c121773d53f253672
            </lane>
            <lane id="L1913_2"/>
        </edge>
        <edge id="L2115">
            <lane id="L2115_0">
<<<<<<< HEAD
                <vehicle id="F075_0" pos="15.61" speed="5.30"/>
=======
                <vehicle id="F075_0" pos="15.20" speed="5.27"/>
>>>>>>> 4f09d9ba0b1acf4c08593e7c121773d53f253672
            </lane>
        </edge>
        <edge id="L2216">
            <lane id="L2216_0">
<<<<<<< HEAD
                <vehicle id="F08_0" pos="15.49" speed="5.50"/>
=======
                <vehicle id="F08_0" pos="16.57" speed="5.95"/>
>>>>>>> 4f09d9ba0b1acf4c08593e7c121773d53f253672
            </lane>
        </edge>
<<<<<<< HEAD
        <edge id="L2418">
<<<<<<< HEAD
            <lane id="L2418_0"/>
            <lane id="L2418_1">
                <vehicle id="F11_0" pos="16.50" speed="5.40"/>
            </lane>
            <lane id="L2418_2">
=======
            <lane id="L2418_0">
>>>>>>> 5f387c580a3e23a6b3436f6bfe5f13047faf5a23
                <vehicle id="F11_1" pos="5.10" speed="0.00"/>
                <vehicle id="F11_0" pos="15.74" speed="5.43"/>
            </lane>
<<<<<<< HEAD
=======
            <lane id="L2418_1"/>
            <lane id="L2418_2"/>
>>>>>>> 5f387c580a3e23a6b3436f6bfe5f13047faf5a23
        </edge>
=======
>>>>>>> 6012d6d0722253ec0301fda39f2649d85efc4a0a
        <edge id="L2423">
<<<<<<< HEAD
            <lane id="L2423_0"/>
            <lane id="L2423_1">
                <vehicle id="F05_0" pos="18.49" speed="6.81"/>
=======
            <lane id="L2423_0">
                <vehicle id="F05_0" pos="14.90" speed="4.90"/>
>>>>>>> 4f09d9ba0b1acf4c08593e7c121773d53f253672
            </lane>
        </edge>
    </timestep>
    <timestep time="4.00">
        <edge id="L0102">
            <lane id="L0102_0">
<<<<<<< HEAD
                <vehicle id="F02_0" pos="25.60" speed="8.04"/>
=======
                <vehicle id="F02_0" pos="28.16" speed="8.76"/>
>>>>>>> 4f09d9ba0b1acf4c08593e7c121773d53f253672
            </lane>
            <lane id="L0102_1"/>
        </edge>
        <edge id="L0107">
            <lane id="L0107_0">
<<<<<<< HEAD
                <vehicle id="F01_0" pos="25.46" speed="8.63"/>
=======
                <vehicle id="F01_0" pos="22.27" speed="7.24"/>
>>>>>>> 4f09d9ba0b1acf4c08593e7c121773d53f253672
            </lane>
<<<<<<< HEAD
            <lane id="L0107_1"/>
            <lane id="L0107_2">
                <vehicle id="F01_1" pos="7.21" speed="2.11"/>
=======
            <lane id="L0107_1">
<<<<<<< HEAD
<<<<<<< HEAD
                <vehicle id="F01_1" pos="7.17" speed="2.07"/>
>>>>>>> 5f387c580a3e23a6b3436f6bfe5f13047faf5a23
=======
                <vehicle id="F01_1" pos="6.45" speed="1.35"/>
>>>>>>> 6012d6d0722253ec0301fda39f2649d85efc4a0a
=======
                <vehicle id="F01_1" pos="5.10" speed="0.00"/>
>>>>>>> 4f09d9ba0b1acf4c08593e7c121773d53f253672
            </lane>
        </edge>
        <edge id="L0208">
            <lane id="L0208_0">
<<<<<<< HEAD
                <vehicle id="F06_0" pos="23.30" speed="7.37"/>
=======
                <vehicle id="F06_0" pos="23.66" speed="7.66"/>
>>>>>>> 4f09d9ba0b1acf4c08593e7c121773d53f253672
            </lane>
        </edge>
        <edge id="L0309">
            <lane id="L0309_0">
<<<<<<< HEAD
                <vehicle id="F07_0" pos="23.10" speed="6.79"/>
=======
                <vehicle id="F07_0" pos="25.08" speed="8.12"/>
>>>>>>> 4f09d9ba0b1acf4c08593e7c121773d53f253672
            </lane>
        </edge>
        <edge id="L0511">
            <lane id="L0511_0">
<<<<<<< HEAD
                <vehicle id="F09_0" pos="22.06" speed="6.63"/>
            </lane>
        </edge>
        <edge id="L0612">
            <lane id="L0612_0"/>
=======
                <vehicle id="F09_0" pos="25.89" speed="7.75"/>
            </lane>
        </edge>
        <edge id="L0612">
            <lane id="L0612_0">
                <vehicle id="F10_0" pos="28.09" speed="8.79"/>
            </lane>
>>>>>>> 4f09d9ba0b1acf4c08593e7c121773d53f253672
            <lane id="L0612_1"/>
            <lane id="L0612_2">
                <vehicle id="F10_0" pos="27.22" speed="9.11"/>
            </lane>
        </edge>
        <edge id="L1211">
<<<<<<< HEAD
            <lane id="L1211_0"/>
            <lane id="L1211_1">
                <vehicle id="F03_0" pos="22.95" speed="7.99"/>
=======
            <lane id="L1211_0">
                <vehicle id="F03_0" pos="24.31" speed="8.23"/>
>>>>>>> 4f09d9ba0b1acf4c08593e7c121773d53f253672
            </lane>
        </edge>
        <edge id="L1314">
            <lane id="L1314_0">
<<<<<<< HEAD
                <vehicle id="F04_0" pos="23.66" speed="8.04"/>
=======
                <vehicle id="F04_0" pos="27.40" speed="9.08"/>
>>>>>>> 4f09d9ba0b1acf4c08593e7c121773d53f253672
            </lane>
            <lane id="L1314_1"/>
        </edge>
        <edge id="L1812">
            <lane id="L1812_0">
                <vehicle id="F11_0" pos="28.07" speed="8.95"/>
            </lane>
            <lane id="L1812_1">
                <vehicle id="F11_1" pos="5.10" speed="0.00"/>
            </lane>
            <lane id="L1812_2"/>
        </edge>
        <edge id="L1913">
<<<<<<< HEAD
            <lane id="L1913_0"/>
            <lane id="L1913_1">
<<<<<<< HEAD
                <vehicle id="F00_1" pos="6.00" speed="0.90"/>
                <vehicle id="F00_0" pos="20.02" speed="6.26"/>
=======
                <vehicle id="F00_1" pos="9.34" speed="2.79"/>
>>>>>>> 5f387c580a3e23a6b3436f6bfe5f13047faf5a23
=======
            <lane id="L1913_0">
                <vehicle id="F00_0" pos="22.90" speed="6.97"/>
            </lane>
            <lane id="L1913_1">
<<<<<<< HEAD
                <vehicle id="F00_1" pos="10.25" speed="3.70"/>
>>>>>>> 6012d6d0722253ec0301fda39f2649d85efc4a0a
            </lane>
            <lane id="L1913_2">
                <vehicle id="F00_2" pos="5.10" speed="0.00"/>
=======
                <vehicle id="F00_1" pos="7.54" speed="2.44"/>
>>>>>>> 4f09d9ba0b1acf4c08593e7c121773d53f253672
            </lane>
            <lane id="L1913_2"/>
        </edge>
        <edge id="L2115">
            <lane id="L2115_0">
<<<<<<< HEAD
                <vehicle id="F075_0" pos="23.43" speed="7.82"/>
=======
                <vehicle id="F075_0" pos="22.30" speed="7.10"/>
>>>>>>> 4f09d9ba0b1acf4c08593e7c121773d53f253672
            </lane>
        </edge>
        <edge id="L2216">
            <lane id="L2216_0">
<<<<<<< HEAD
                <vehicle id="F08_0" pos="22.45" speed="6.96"/>
            </lane>
        </edge>
<<<<<<< HEAD
        <edge id="L2418">
<<<<<<< HEAD
            <lane id="L2418_0"/>
            <lane id="L2418_1">
                <vehicle id="F11_0" pos="24.30" speed="7.81"/>
            </lane>
            <lane id="L2418_2">
                <vehicle id="F11_1" pos="6.82" speed="1.72"/>
=======
                <vehicle id="F08_0" pos="24.23" speed="7.66"/>
>>>>>>> 4f09d9ba0b1acf4c08593e7c121773d53f253672
            </lane>
        </edge>
        <edge id="L2423">
            <lane id="L2423_0"/>
            <lane id="L2423_1">
                <vehicle id="F05_0" pos="26.84" speed="8.35"/>
=======
            <lane id="L2418_0">
                <vehicle id="F11_1" pos="7.41" speed="2.31"/>
                <vehicle id="F11_0" pos="23.55" speed="7.81"/>
            </lane>
            <lane id="L2418_1"/>
            <lane id="L2418_2"/>
        </edge>
        <edge id="L2423">
            <lane id="L2423_0">
                <vehicle id="F05_0" pos="23.33" speed="7.80"/>
>>>>>>> 5f387c580a3e23a6b3436f6bfe5f13047faf5a23
=======
        <edge id="L2423">
            <lane id="L2423_0">
<<<<<<< HEAD
                <vehicle id="F05_0" pos="23.38" speed="7.85"/>
>>>>>>> 6012d6d0722253ec0301fda39f2649d85efc4a0a
=======
                <vehicle id="F05_0" pos="21.86" speed="6.97"/>
>>>>>>> 4f09d9ba0b1acf4c08593e7c121773d53f253672
            </lane>
        </edge>
    </timestep>
    <timestep time="5.00">
        <edge id="L0102">
            <lane id="L0102_0">
<<<<<<< HEAD
                <vehicle id="F02_0" pos="35.13" speed="9.53"/>
=======
                <vehicle id="F02_0" pos="39.48" speed="11.32"/>
>>>>>>> 4f09d9ba0b1acf4c08593e7c121773d53f253672
            </lane>
            <lane id="L0102_1"/>
        </edge>
        <edge id="L0107">
            <lane id="L0107_0">
<<<<<<< HEAD
                <vehicle id="F01_0" pos="35.90" speed="10.44"/>
=======
                <vehicle id="F01_0" pos="31.91" speed="9.64"/>
>>>>>>> 4f09d9ba0b1acf4c08593e7c121773d53f253672
            </lane>
<<<<<<< HEAD
            <lane id="L0107_1"/>
            <lane id="L0107_2">
                <vehicle id="F01_1" pos="11.44" speed="4.24"/>
=======
            <lane id="L0107_1">
<<<<<<< HEAD
<<<<<<< HEAD
                <vehicle id="F01_1" pos="11.08" speed="3.91"/>
>>>>>>> 5f387c580a3e23a6b3436f6bfe5f13047faf5a23
=======
                <vehicle id="F01_1" pos="10.17" speed="3.73"/>
>>>>>>> 6012d6d0722253ec0301fda39f2649d85efc4a0a
=======
                <vehicle id="F01_1" pos="6.45" speed="1.35"/>
>>>>>>> 4f09d9ba0b1acf4c08593e7c121773d53f253672
            </lane>
        </edge>
        <edge id="L0208">
            <lane id="L0208_0">
<<<<<<< HEAD
                <vehicle id="F06_0" pos="31.98" speed="8.69"/>
=======
                <vehicle id="F06_0" pos="33.56" speed="9.90"/>
>>>>>>> 4f09d9ba0b1acf4c08593e7c121773d53f253672
            </lane>
        </edge>
        <edge id="L0309">
            <lane id="L0309_0">
<<<<<<< HEAD
                <vehicle id="F07_0" pos="31.67" speed="8.56"/>
=======
                <vehicle id="F07_0" pos="35.10" speed="10.01"/>
>>>>>>> 4f09d9ba0b1acf4c08593e7c121773d53f253672
            </lane>
        </edge>
        <edge id="L0511">
            <lane id="L0511_0">
<<<<<<< HEAD
                <vehicle id="F09_0" pos="30.62" speed="8.56"/>
            </lane>
        </edge>
        <edge id="L0612">
            <lane id="L0612_0"/>
=======
                <vehicle id="F09_0" pos="35.03" speed="9.14"/>
            </lane>
        </edge>
        <edge id="L0612">
            <lane id="L0612_0">
                <vehicle id="F10_0" pos="38.65" speed="10.56"/>
            </lane>
>>>>>>> 4f09d9ba0b1acf4c08593e7c121773d53f253672
            <lane id="L0612_1"/>
            <lane id="L0612_2">
                <vehicle id="F10_0" pos="37.67" speed="10.45"/>
            </lane>
        </edge>
        <edge id="L1211">
<<<<<<< HEAD
            <lane id="L1211_0"/>
            <lane id="L1211_1">
                <vehicle id="F03_0" pos="32.32" speed="9.37"/>
=======
            <lane id="L1211_0">
                <vehicle id="F03_0" pos="34.91" speed="10.60"/>
>>>>>>> 4f09d9ba0b1acf4c08593e7c121773d53f253672
            </lane>
        </edge>
        <edge id="L1314">
            <lane id="L1314_0">
<<<<<<< HEAD
                <vehicle id="F04_0" pos="34.01" speed="10.35"/>
=======
                <vehicle id="F04_0" pos="37.85" speed="10.44"/>
>>>>>>> 4f09d9ba0b1acf4c08593e7c121773d53f253672
            </lane>
            <lane id="L1314_1"/>
        </edge>
        <edge id="L1812">
            <lane id="L1812_0">
                <vehicle id="F11_0" pos="39.40" speed="11.33"/>
            </lane>
            <lane id="L1812_1">
                <vehicle id="F11_1" pos="6.48" speed="1.38"/>
            </lane>
            <lane id="L1812_2"/>
        </edge>
        <edge id="L1913">
<<<<<<< HEAD
            <lane id="L1913_0"/>
            <lane id="L1913_1">
<<<<<<< HEAD
                <vehicle id="F00_1" pos="8.94" speed="2.94"/>
                <vehicle id="F00_0" pos="28.58" speed="8.55"/>
=======
                <vehicle id="F00_1" pos="14.51" speed="5.17"/>
>>>>>>> 5f387c580a3e23a6b3436f6bfe5f13047faf5a23
=======
            <lane id="L1913_0">
                <vehicle id="F00_0" pos="31.72" speed="8.81"/>
            </lane>
            <lane id="L1913_1">
<<<<<<< HEAD
                <vehicle id="F00_1" pos="15.31" speed="5.06"/>
>>>>>>> 6012d6d0722253ec0301fda39f2649d85efc4a0a
            </lane>
            <lane id="L1913_2">
                <vehicle id="F00_2" pos="7.54" speed="2.44"/>
=======
                <vehicle id="F00_1" pos="12.17" speed="4.64"/>
>>>>>>> 4f09d9ba0b1acf4c08593e7c121773d53f253672
            </lane>
            <lane id="L1913_2"/>
        </edge>
        <edge id="L2115">
            <lane id="L2115_0">
<<<<<<< HEAD
                <vehicle id="F075_0" pos="33.05" speed="9.62"/>
=======
                <vehicle id="F075_0" pos="31.91" speed="9.61"/>
>>>>>>> 4f09d9ba0b1acf4c08593e7c121773d53f253672
            </lane>
        </edge>
        <edge id="L2216">
            <lane id="L2216_0">
<<<<<<< HEAD
                <vehicle id="F08_0" pos="32.00" speed="9.55"/>
            </lane>
        </edge>
<<<<<<< HEAD
        <edge id="L2418">
<<<<<<< HEAD
            <lane id="L2418_0"/>
            <lane id="L2418_1">
                <vehicle id="F11_0" pos="34.36" speed="10.06"/>
            </lane>
            <lane id="L2418_2">
                <vehicle id="F11_1" pos="10.46" speed="3.64"/>
            </lane>
        </edge>
        <edge id="L2423">
            <lane id="L2423_0"/>
            <lane id="L2423_1">
                <vehicle id="F05_0" pos="36.68" speed="9.84"/>
=======
            <lane id="L2418_0">
                <vehicle id="F11_1" pos="12.08" speed="4.67"/>
                <vehicle id="F11_0" pos="33.13" speed="9.58"/>
=======
                <vehicle id="F08_0" pos="34.25" speed="10.02"/>
>>>>>>> 4f09d9ba0b1acf4c08593e7c121773d53f253672
            </lane>
            <lane id="L2418_1"/>
            <lane id="L2418_2"/>
        </edge>
        <edge id="L2423">
            <lane id="L2423_0">
<<<<<<< HEAD
                <vehicle id="F05_0" pos="32.48" speed="9.15"/>
>>>>>>> 5f387c580a3e23a6b3436f6bfe5f13047faf5a23
=======
        <edge id="L2423">
            <lane id="L2423_0">
                <vehicle id="F05_0" pos="33.59" speed="10.21"/>
>>>>>>> 6012d6d0722253ec0301fda39f2649d85efc4a0a
=======
                <vehicle id="F05_0" pos="30.79" speed="8.92"/>
>>>>>>> 4f09d9ba0b1acf4c08593e7c121773d53f253672
            </lane>
        </edge>
    </timestep>
    <timestep time="6.00">
        <edge id="L0102">
            <lane id="L0102_0">
<<<<<<< HEAD
                <vehicle id="F02_0" pos="47.20" speed="12.08"/>
=======
                <vehicle id="F02_0" pos="52.95" speed="13.46"/>
>>>>>>> 4f09d9ba0b1acf4c08593e7c121773d53f253672
            </lane>
            <lane id="L0102_1"/>
        </edge>
        <edge id="L0107">
            <lane id="L0107_0">
<<<<<<< HEAD
<<<<<<< HEAD
                <vehicle id="F01_0" pos="47.89" speed="11.99"/>
=======
                <vehicle id="F01_0" pos="43.06" speed="10.91"/>
            </lane>
            <lane id="L0107_1">
<<<<<<< HEAD
                <vehicle id="F01_1" pos="17.32" speed="6.24"/>
>>>>>>> 5f387c580a3e23a6b3436f6bfe5f13047faf5a23
=======
                <vehicle id="F01_1" pos="16.27" speed="6.09"/>
>>>>>>> 6012d6d0722253ec0301fda39f2649d85efc4a0a
            </lane>
            <lane id="L0107_1"/>
            <lane id="L0107_2">
                <vehicle id="F01_2" pos="5.10" speed="0.00"/>
                <vehicle id="F01_1" pos="17.33" speed="5.89"/>
=======
                <vehicle id="F01_0" pos="43.21" speed="11.30"/>
            </lane>
            <lane id="L0107_1">
                <vehicle id="F01_1" pos="10.00" speed="3.54"/>
>>>>>>> 4f09d9ba0b1acf4c08593e7c121773d53f253672
            </lane>
            <lane id="L0107_2"/>
        </edge>
        <edge id="L0208">
            <lane id="L0208_0">
<<<<<<< HEAD
                <vehicle id="F06_0" pos="42.98" speed="11.00"/>
=======
                <vehicle id="F06_0" pos="44.37" speed="10.80"/>
>>>>>>> 4f09d9ba0b1acf4c08593e7c121773d53f253672
            </lane>
        </edge>
        <edge id="L0309">
            <lane id="L0309_0">
<<<<<<< HEAD
                <vehicle id="F07_0" pos="42.76" speed="11.10"/>
=======
                <vehicle id="F07_0" pos="46.00" speed="10.90"/>
>>>>>>> 4f09d9ba0b1acf4c08593e7c121773d53f253672
            </lane>
        </edge>
        <edge id="L0511">
            <lane id="L0511_0">
<<<<<<< HEAD
                <vehicle id="F09_0" pos="40.51" speed="9.89"/>
            </lane>
        </edge>
        <edge id="L0612">
            <lane id="L0612_0"/>