<?xml version="1.0"?>

<!-- generated on Wed Apr 17 13:17:49 2013 by SUMO sumo Version 0.16.0
<?xml version="1.0" encoding="UTF-8"?>

<configuration xmlns:xsi="http://www.w3.org/2001/XMLSchema-instance" xsi:noNamespaceSchemaLocation="http://sumo.sf.net/xsd/sumoConfiguration.xsd">

    <input>
        <net-file value="../grid6_4.net.xml"/>
        <route-files value="grid6_4.rou.xml"/>
    </input>

    <output>
        <netstate-dump value="netstate6_4.xml"/>
    </output>

    <time>
        <begin value="0"/>
        <end value="200"/>
    </time>

    <processing>
        <time-to-teleport value="-1"/>
    </processing>

</configuration>
-->

<sumo-netstate>
    <timestep time="0.00">
        <edge id="L0102">
            <lane id="L0102_0">
                <vehicle id="F02_0" pos="5.10" speed="0.00"/>
            </lane>
            <lane id="L0102_1"/>
        </edge>
        <edge id="L0107">
            <lane id="L0107_0">
                <vehicle id="F01_0" pos="5.10" speed="0.00"/>
            </lane>
            <lane id="L0107_1"/>
            <lane id="L0107_2"/>
        </edge>
        <edge id="L0208">
            <lane id="L0208_0">
                <vehicle id="F06_0" pos="5.10" speed="0.00"/>
            </lane>
        </edge>
        <edge id="L0309">
            <lane id="L0309_0"/>
            <lane id="L0309_1">
                <vehicle id="F07_0" pos="5.10" speed="0.00"/>
            </lane>
        </edge>
        <edge id="L0511">
            <lane id="L0511_0">
                <vehicle id="F09_0" pos="5.10" speed="0.00"/>
            </lane>
        </edge>
        <edge id="L0612">
            <lane id="L0612_0">
                <vehicle id="F10_0" pos="5.10" speed="0.00"/>
            </lane>
            <lane id="L0612_1">
                <vehicle id="F13_0" pos="5.10" speed="0.00"/>
            </lane>
            <lane id="L0612_2"/>
        </edge>
        <edge id="L1211">
            <lane id="L1211_0">
                <vehicle id="F03_0" pos="5.10" speed="0.00"/>
            </lane>
            <lane id="L1211_1"/>
        </edge>
        <edge id="L1314">
            <lane id="L1314_0">
                <vehicle id="F04_0" pos="5.10" speed="0.00"/>
            </lane>
            <lane id="L1314_1"/>
        </edge>
        <edge id="L1913">
            <lane id="L1913_0">
                <vehicle id="rAmb_0" pos="5.10" speed="0.00"/>
            </lane>
            <lane id="L1913_1">
                <vehicle id="F00_0" pos="5.10" speed="0.00"/>
            </lane>
            <lane id="L1913_2">
                <vehicle id="F12_0" pos="5.10" speed="0.00"/>
            </lane>
        </edge>
        <edge id="L2115">
            <lane id="L2115_0"/>
            <lane id="L2115_1">
                <vehicle id="F075_0" pos="5.10" speed="0.00"/>
            </lane>
        </edge>
        <edge id="L2216">
            <lane id="L2216_0">
                <vehicle id="F08_0" pos="5.10" speed="0.00"/>
            </lane>
        </edge>
        <edge id="L2418">
            <lane id="L2418_0"/>
            <lane id="L2418_1"/>
            <lane id="L2418_2">
                <vehicle id="F11_0" pos="5.10" speed="0.00"/>
            </lane>
        </edge>
        <edge id="L2423">
            <lane id="L2423_0"/>
            <lane id="L2423_1">
                <vehicle id="F05_0" pos="5.10" speed="0.00"/>
            </lane>
        </edge>
    </timestep>
    <timestep time="1.00">
        <edge id="L0102">
            <lane id="L0102_0">
                <vehicle id="F02_0" pos="6.46" speed="1.36"/>
            </lane>
            <lane id="L0102_1"/>
        </edge>
        <edge id="L0107">
            <lane id="L0107_0">
                <vehicle id="F01_0" pos="7.14" speed="2.04"/>
            </lane>
            <lane id="L0107_1"/>
            <lane id="L0107_2"/>
        </edge>
        <edge id="L0208">
            <lane id="L0208_0">
                <vehicle id="F06_0" pos="6.54" speed="1.44"/>
            </lane>
        </edge>
        <edge id="L0309">
            <lane id="L0309_0"/>
            <lane id="L0309_1">
                <vehicle id="F07_0" pos="7.68" speed="2.58"/>
            </lane>
        </edge>
        <edge id="L0511">
            <lane id="L0511_0">
                <vehicle id="F09_0" pos="7.28" speed="2.18"/>
            </lane>
        </edge>
        <edge id="L0612">
            <lane id="L0612_0">
                <vehicle id="F10_0" pos="6.91" speed="1.81"/>
            </lane>
            <lane id="L0612_1">
                <vehicle id="F13_0" pos="6.67" speed="1.57"/>
            </lane>
            <lane id="L0612_2"/>
        </edge>
        <edge id="L1211">
            <lane id="L1211_0">
                <vehicle id="F03_0" pos="6.52" speed="1.42"/>
            </lane>
            <lane id="L1211_1"/>
        </edge>
        <edge id="L1314">
            <lane id="L1314_0">
                <vehicle id="F04_0" pos="6.43" speed="1.33"/>
            </lane>
            <lane id="L1314_1"/>
        </edge>
        <edge id="L1913">
            <lane id="L1913_0">
                <vehicle id="rAmb_0" pos="7.27" speed="2.17"/>
            </lane>
            <lane id="L1913_1">
                <vehicle id="F00_0" pos="6.96" speed="1.86"/>
            </lane>
            <lane id="L1913_2">
                <vehicle id="F12_0" pos="6.80" speed="1.70"/>
            </lane>
        </edge>
        <edge id="L2115">
            <lane id="L2115_0"/>
            <lane id="L2115_1">
                <vehicle id="F075_0" pos="6.46" speed="1.36"/>
            </lane>
        </edge>
        <edge id="L2216">
            <lane id="L2216_0">
                <vehicle id="F08_0" pos="7.60" speed="2.50"/>
            </lane>
        </edge>
        <edge id="L2418">
            <lane id="L2418_0"/>
            <lane id="L2418_1"/>
            <lane id="L2418_2">
                <vehicle id="F11_0" pos="6.53" speed="1.43"/>
            </lane>
        </edge>
        <edge id="L2423">
            <lane id="L2423_0"/>
            <lane id="L2423_1">
                <vehicle id="F05_0" pos="7.31" speed="2.21"/>
            </lane>
        </edge>
    </timestep>
    <timestep time="2.00">
        <edge id="L0102">
            <lane id="L0102_0">
                <vehicle id="F02_0" pos="9.49" speed="3.04"/>
            </lane>
            <lane id="L0102_1"/>
        </edge>
        <edge id="L0107">
            <lane id="L0107_0">
                <vehicle id="F01_0" pos="10.90" speed="3.76"/>
            </lane>
            <lane id="L0107_1"/>
            <lane id="L0107_2"/>
        </edge>
        <edge id="L0208">
            <lane id="L0208_0">
                <vehicle id="F06_0" pos="9.42" speed="2.88"/>
            </lane>
        </edge>
        <edge id="L0309">
            <lane id="L0309_0"/>
            <lane id="L0309_1">
                <vehicle id="F07_0" pos="12.15" speed="4.48"/>
            </lane>
        </edge>
        <edge id="L0511">
            <lane id="L0511_0">
                <vehicle id="F09_0" pos="11.78" speed="4.50"/>
            </lane>
        </edge>
        <edge id="L0612">
            <lane id="L0612_0">
                <vehicle id="F10_0" pos="11.27" speed="4.36"/>
            </lane>
            <lane id="L0612_1">
                <vehicle id="F13_0" pos="10.52" speed="3.85"/>
            </lane>
            <lane id="L0612_2"/>
        </edge>
        <edge id="L1211">
            <lane id="L1211_0">
                <vehicle id="F03_0" pos="10.46" speed="3.94"/>
            </lane>
            <lane id="L1211_1"/>
        </edge>
        <edge id="L1314">
            <lane id="L1314_0">
                <vehicle id="F04_0" pos="10.29" speed="3.86"/>
            </lane>
            <lane id="L1314_1"/>
        </edge>
        <edge id="L1913">
            <lane id="L1913_0">
                <vehicle id="rAmb_0" pos="11.86" speed="4.59"/>
            </lane>
            <lane id="L1913_1">
                <vehicle id="F00_0" pos="10.31" speed="3.35"/>
            </lane>
            <lane id="L1913_2">
                <vehicle id="F12_0" pos="9.81" speed="3.01"/>
            </lane>
        </edge>
        <edge id="L2115">
            <lane id="L2115_0"/>
            <lane id="L2115_1">
                <vehicle id="F075_0" pos="10.41" speed="3.95"/>
            </lane>
        </edge>
        <edge id="L2216">
            <lane id="L2216_0">
                <vehicle id="F08_0" pos="11.71" speed="4.11"/>
            </lane>
        </edge>
        <edge id="L2418">
            <lane id="L2418_0"/>
            <lane id="L2418_1"/>
            <lane id="L2418_2">
                <vehicle id="F11_0" pos="10.10" speed="3.58"/>
            </lane>
        </edge>
        <edge id="L2423">
            <lane id="L2423_0"/>
            <lane id="L2423_1">
                <vehicle id="F05_0" pos="11.00" speed="3.70"/>
            </lane>
        </edge>
    </timestep>
    <timestep time="3.00">
        <edge id="L0102">
            <lane id="L0102_0">
                <vehicle id="F02_0" pos="14.04" speed="4.55"/>
            </lane>
            <lane id="L0102_1"/>
        </edge>
        <edge id="L0107">
            <lane id="L0107_0">
                <vehicle id="F01_0" pos="16.99" speed="6.09"/>
            </lane>
            <lane id="L0107_1"/>
            <lane id="L0107_2">
                <vehicle id="F01_1" pos="5.10" speed="0.00"/>
            </lane>
        </edge>
        <edge id="L0208">
            <lane id="L0208_0">
                <vehicle id="F06_0" pos="14.36" speed="4.93"/>
            </lane>
        </edge>
        <edge id="L0309">
            <lane id="L0309_0"/>
            <lane id="L0309_1">
                <vehicle id="F07_0" pos="19.12" speed="6.97"/>
            </lane>
        </edge>
        <edge id="L0511">
            <lane id="L0511_0">
                <vehicle id="F09_0" pos="17.70" speed="5.92"/>
            </lane>
        </edge>
        <edge id="L0612">
            <lane id="L0612_0">
                <vehicle id="F10_0" pos="18.12" speed="6.85"/>
            </lane>
            <lane id="L0612_1">
                <vehicle id="F13_0" pos="16.82" speed="6.30"/>
            </lane>
            <lane id="L0612_2"/>
        </edge>
        <edge id="L1211">
            <lane id="L1211_0">
                <vehicle id="F03_0" pos="16.33" speed="5.87"/>
            </lane>
            <lane id="L1211_1"/>
        </edge>
        <edge id="L1314">
            <lane id="L1314_0">
                <vehicle id="F04_0" pos="16.40" speed="6.10"/>
            </lane>
            <lane id="L1314_1"/>
        </edge>
        <edge id="L1913">
            <lane id="L1913_0">
                <vehicle id="F00_1" pos="5.10" speed="0.00"/>
                <vehicle id="rAmb_0" pos="18.85" speed="6.99"/>
            </lane>
            <lane id="L1913_1">
                <vehicle id="F00_0" pos="15.19" speed="4.89"/>
            </lane>
            <lane id="L1913_2">
                <vehicle id="F12_0" pos="14.93" speed="5.12"/>
            </lane>
        </edge>
        <edge id="L2115">
            <lane id="L2115_0"/>
            <lane id="L2115_1">
                <vehicle id="F075_0" pos="16.08" speed="5.67"/>
            </lane>
        </edge>
        <edge id="L2216">
            <lane id="L2216_0">
                <vehicle id="F08_0" pos="17.15" speed="5.44"/>
            </lane>
        </edge>
        <edge id="L2418">
            <lane id="L2418_0"/>
            <lane id="L2418_1"/>
            <lane id="L2418_2">
                <vehicle id="F11_0" pos="15.94" speed="5.84"/>
            </lane>
        </edge>
        <edge id="L2423">
            <lane id="L2423_0"/>
            <lane id="L2423_1">
                <vehicle id="F05_0" pos="16.53" speed="5.52"/>
            </lane>
        </edge>
    </timestep>
    <timestep time="4.00">
        <edge id="L0102">
            <lane id="L0102_0">
                <vehicle id="F02_0" pos="20.52" speed="6.48"/>
            </lane>
            <lane id="L0102_1"/>
        </edge>
        <edge id="L0107">
            <lane id="L0107_0">
                <vehicle id="F01_0" pos="24.86" speed="7.87"/>
            </lane>
            <lane id="L0107_1"/>
            <lane id="L0107_2">
                <vehicle id="F01_1" pos="7.54" speed="2.44"/>
            </lane>
        </edge>
        <edge id="L0208">
            <lane id="L0208_0">
                <vehicle id="F06_0" pos="21.09" speed="6.73"/>
            </lane>
        </edge>
        <edge id="L0309">
            <lane id="L0309_0"/>
            <lane id="L0309_1">
                <vehicle id="F07_0" pos="27.41" speed="8.28"/>
            </lane>
        </edge>
        <edge id="L0511">
            <lane id="L0511_0">
                <vehicle id="F09_0" pos="26.22" speed="8.52"/>
            </lane>
        </edge>
        <edge id="L0612">
            <lane id="L0612_0">
                <vehicle id="F13_1" pos="5.10" speed="0.00"/>
                <vehicle id="F10_0" pos="26.46" speed="8.34"/>
            </lane>
            <lane id="L0612_1">
                <vehicle id="F13_0" pos="24.94" speed="8.12"/>
            </lane>
            <lane id="L0612_2"/>
        </edge>
        <edge id="L1211">
            <lane id="L1211_0">
                <vehicle id="F03_0" pos="23.54" speed="7.21"/>
            </lane>
            <lane id="L1211_1"/>
        </edge>
        <edge id="L1314">
            <lane id="L1314_0">
                <vehicle id="F04_0" pos="23.88" speed="7.49"/>
            </lane>
            <lane id="L1314_1"/>
        </edge>
        <edge id="L1913">
            <lane id="L1913_0">
                <vehicle id="F00_1" pos="7.39" speed="2.29"/>
                <vehicle id="rAmb_0" pos="28.15" speed="9.30"/>
            </lane>
            <lane id="L1913_1">
                <vehicle id="F00_0" pos="22.12" speed="6.93"/>
            </lane>
            <lane id="L1913_2">
                <vehicle id="F12_0" pos="22.30" speed="7.37"/>
            </lane>
        </edge>
        <edge id="L2115">
            <lane id="L2115_0"/>
            <lane id="L2115_1">
                <vehicle id="F075_0" pos="23.23" speed="7.16"/>
            </lane>
        </edge>
        <edge id="L2216">
            <lane id="L2216_0">
                <vehicle id="F08_0" pos="24.49" speed="7.34"/>
            </lane>
        </edge>
        <edge id="L2418">
            <lane id="L2418_0"/>
            <lane id="L2418_1"/>
            <lane id="L2418_2">
                <vehicle id="F11_0" pos="23.91" speed="7.97"/>
            </lane>
        </edge>
        <edge id="L2423">
            <lane id="L2423_0"/>
            <lane id="L2423_1">
                <vehicle id="F05_0" pos="23.97" speed="7.45"/>
            </lane>
        </edge>
    </timestep>
    <timestep time="5.00">
        <edge id="L0102">
            <lane id="L0102_0">
                <vehicle id="F02_0" pos="29.33" speed="8.81"/>
            </lane>
            <lane id="L0102_1"/>
        </edge>
        <edge id="L0107">
            <lane id="L0107_0">
                <vehicle id="F01_0" pos="34.64" speed="9.78"/>
            </lane>
            <lane id="L0107_1"/>
            <lane id="L0107_2">
                <vehicle id="F01_1" pos="12.40" speed="4.85"/>
            </lane>
        </edge>
        <edge id="L0208">
            <lane id="L0208_0">
                <vehicle id="F06_0" pos="29.39" speed="8.31"/>
            </lane>
        </edge>
        <edge id="L0309">
            <lane id="L0309_0"/>
            <lane id="L0309_1">
                <vehicle id="F07_0" pos="37.31" speed="9.91"/>
            </lane>
        </edge>
        <edge id="L0511">
            <lane id="L0511_0">
                <vehicle id="F09_0" pos="36.28" speed="10.06"/>
            </lane>
        </edge>
        <edge id="L0612">
            <lane id="L0612_0">
                <vehicle id="F13_1" pos="6.86" speed="1.76"/>
                <vehicle id="F10_0" pos="36.52" speed="10.06"/>
            </lane>
            <lane id="L0612_1">
                <vehicle id="F13_0" pos="34.42" speed="9.48"/>
            </lane>
            <lane id="L0612_2"/>
        </edge>
        <edge id="L1211">
            <lane id="L1211_0">
                <vehicle id="F03_0" pos="32.09" speed="8.55"/>
            </lane>
            <lane id="L1211_1"/>
        </edge>
        <edge id="L1314">
            <lane id="L1314_0">
                <vehicle id="F04_0" pos="33.90" speed="10.02"/>
            </lane>
            <lane id="L1314_1"/>
        </edge>
        <edge id="L1913">
            <lane id="L1913_0">
                <vehicle id="F00_1" pos="7.39" speed="0.00"/>
                <vehicle id="F00_0" pos="27.57" speed="5.45"/>
                <vehicle id="rAmb_0" pos="39.87" speed="11.72"/>
            </lane>
            <lane id="L1913_1"/>
            <lane id="L1913_2">
                <vehicle id="F12_0" pos="31.77" speed="9.47"/>
            </lane>
        </edge>
        <edge id="L2115">
            <lane id="L2115_0"/>
            <lane id="L2115_1">
                <vehicle id="F075_0" pos="32.83" speed="9.60"/>
            </lane>
        </edge>
        <edge id="L2216">
            <lane id="L2216_0">
                <vehicle id="F08_0" pos="33.87" speed="9.39"/>
            </lane>
        </edge>
        <edge id="L2418">
            <lane id="L2418_0"/>
            <lane id="L2418_1"/>
            <lane id="L2418_2">
                <vehicle id="F11_0" pos="34.46" speed="10.55"/>
            </lane>
        </edge>
        <edge id="L2423">
            <lane id="L2423_0"/>
            <lane id="L2423_1">
                <vehicle id="F05_0" pos="33.28" speed="9.31"/>
            </lane>
        </edge>
    </timestep>
    <timestep time="6.00">
        <edge id="L0102">
            <lane id="L0102_0">
                <vehicle id="F02_0" pos="40.65" speed="11.32"/>
            </lane>
            <lane id="L0102_1"/>
        </edge>
        <edge id="L0107">
            <lane id="L0107_0">
                <vehicle id="F01_0" pos="46.79" speed="12.15"/>
            </lane>
            <lane id="L0107_1">
                <vehicle id="F01_2" pos="5.10" speed="0.00"/>
            </lane>
            <lane id="L0107_2">
                <vehicle id="F01_1" pos="19.18" speed="6.78"/>
            </lane>
        </edge>
        <edge id="L0208">
            <lane id="L0208_0">
                <vehicle id="F06_0" pos="39.92" speed="10.52"/>
            </lane>
        </edge>
        <edge id="L0309">
            <lane id="L0309_0"/>
            <lane id="L0309_1">
                <vehicle id="F07_0" pos="49.02" speed="11.71"/>
            </lane>
        </edge>
        <edge id="L0511">
            <lane id="L0511_0">
                <vehicle id="F09_0" pos="46.41" speed="10.13"/>
            </lane>
        </edge>
        <edge id="L0612">
            <lane id="L0612_0">
                <vehicle id="F13_1" pos="10.01" speed="3.15"/>
                <vehicle id="F10_0" pos="49.01" speed="12.49"/>
            </lane>
            <lane id="L0612_1">
                <vehicle id="F13_0" pos="45.30" speed="10.88"/>
            </lane>
            <lane id="L0612_2"/>
        </edge>
        <edge id="L1211">
            <lane id="L1211_0">
                <vehicle id="F03_0" pos="43.08" speed="10.99"/>
            </lane>
            <lane id="L1211_1"/>
        </edge>
        <edge id="L1314">
            <lane id="L1314_0">
                <vehicle id="F04_0" pos="46.18" speed="12.28"/>
            </lane>
            <lane id="L1314_1"/>
        </edge>
        <edge id="L1913">
            <lane id="L1913_0">
                <vehicle id="F00_1" pos="9.27" speed="1.88"/>
                <vehicle id="F00_0" pos="34.33" speed="6.76"/>
                <vehicle id="rAmb_0" pos="54.07" speed="14.21"/>
            </lane>
            <lane id="L1913_1">
                <vehicle id="F00_2" pos="5.10" speed="0.00"/>
                <vehicle id="F12_0" pos="43.57" speed="11.80"/>
            </lane>
            <lane id="L1913_2">
                <vehicle id="F00_3" pos="5.10" speed="0.00"/>
            </lane>
        </edge>
        <edge id="L2115">
            <lane id="L2115_0"/>
            <lane id="L2115_1">
                <vehicle id="F075_0" pos="44.84" speed="12.01"/>
            </lane>
        </edge>
        <edge id="L2216">
            <lane id="L2216_0">
                <vehicle id="F08_0" pos="44.91" speed="11.04"/>
            </lane>
        </edge>
        <edge id="L2418">
            <lane id="L2418_0"/>
            <lane id="L2418_1"/>
            <lane id="L2418_2">
                <vehicle id="F11_0" pos="46.90" speed="12.44"/>
            </lane>
        </edge>
        <edge id="L2423">
            <lane id="L2423_0"/>
            <lane id="L2423_1">
                <vehicle id="F05_0" pos="44.50" speed="11.23"/>
            </lane>
        </edge>
    </timestep>
    <timestep time="7.00">
        <edge id="L0102">
            <lane id="L0102_0">
                <vehicle id="F02_0" pos="54.36" speed="13.71"/>
            </lane>
            <lane id="L0102_1"/>
        </edge>
        <edge id="L0107">
            <lane id="L0107_0">
                <vehicle id="F01_0" pos="61.24" speed="14.45"/>
            </lane>
            <lane id="L0107_1">
                <vehicle id="F01_2" pos="6.49" speed="1.39"/>
            </lane>
            <lane id="L0107_2">
                <vehicle id="F01_1" pos="28.12" speed="8.95"/>
            </lane>
        </edge>
        <edge id="L0208">
            <lane id="L0208_0">
                <vehicle id="F06_0" pos="50.52" speed="10.60"/>
            </lane>
        </edge>
        <edge id="L0309">
            <lane id="L0309_0"/>
            <lane id="L0309_1">
                <vehicle id="F07_0" pos="62.05" speed="13.03"/>
            </lane>
        </edge>
        <edge id="L0511">
            <lane id="L0511_0">
                <vehicle id="F09_0" pos="56.82" speed="10.42"/>
            </lane>
        </edge>
        <edge id="L0612">
            <lane id="L0612_0">
                <vehicle id="F13_1" pos="14.74" speed="4.73"/>
                <vehicle id="F10_0" pos="63.56" speed="14.54"/>
            </lane>
            <lane id="L0612_1">
                <vehicle id="F13_0" pos="58.40" speed="13.10"/>
            </lane>
            <lane id="L0612_2"/>
        </edge>
        <edge id="L1211">
            <lane id="L1211_0">
                <vehicle id="F03_0" pos="56.42" speed="13.34"/>
            </lane>
            <lane id="L1211_1"/>
        </edge>
        <edge id="L1314">
            <lane id="L1314_0"/>
            <lane id="L1314_1">
                <vehicle id="F04_0" pos="60.96" speed="14.77"/>
            </lane>
        </edge>
        <edge id="L1913">
            <lane id="L1913_0">
                <vehicle id="F00_1" pos="12.55" speed="3.28"/>
                <vehicle id="F00_0" pos="42.96" speed="8.63"/>
                <vehicle id="rAmb_0" pos="69.63" speed="15.55"/>
            </lane>
            <lane id="L1913_1">
                <vehicle id="F00_2" pos="7.19" speed="2.09"/>
                <vehicle id="F12_0" pos="57.04" speed="13.47"/>
            </lane>
            <lane id="L1913_2">
                <vehicle id="F00_3" pos="7.16" speed="2.06"/>
            </lane>
        </edge>
        <edge id="L2115">
            <lane id="L2115_0"/>
            <lane id="L2115_1">
                <vehicle id="F075_0" pos="58.58" speed="13.74"/>
            </lane>
        </edge>
        <edge id="L2216">
            <lane id="L2216_0">
                <vehicle id="F08_0" pos="55.69" speed="10.78"/>
            </lane>
        </edge>
        <edge id="L2418">
            <lane id="L2418_0"/>
            <lane id="L2418_1"/>
            <lane id="L2418_2">
                <vehicle id="F11_0" pos="60.81" speed="13.91"/>
            </lane>
        </edge>
        <edge id="L2423">
            <lane id="L2423_0"/>
            <lane id="L2423_1">
                <vehicle id="F05_0" pos="57.13" speed="12.62"/>
            </lane>
        </edge>
    </timestep>
    <timestep time="8.00">
        <edge id="L0102">
            <lane id="L0102_0"/>
            <lane id="L0102_1">
                <vehicle id="F02_0" pos="69.65" speed="15.30"/>
            </lane>
        </edge>
        <edge id="L0107">
            <lane id="L0107_0">
                <vehicle id="F01_0" pos="77.20" speed="15.95"/>
            </lane>
            <lane id="L0107_1">
                <vehicle id="F01_2" pos="10.17" speed="3.69"/>
            </lane>
            <lane id="L0107_2">
                <vehicle id="F01_1" pos="38.99" speed="10.87"/>
            </lane>
        </edge>
        <edge id="L0208">
            <lane id="L0208_0">
                <vehicle id="F06_0" pos="61.46" speed="10.94"/>
            </lane>
        </edge>
        <edge id="L0309">
            <lane id="L0309_0"/>
            <lane id="L0309_1">
                <vehicle id="F07_0" pos="77.09" speed="15.04"/>
            </lane>
        </edge>
        <edge id="L0511">
            <lane id="L0511_0">
                <vehicle id="F09_0" pos="67.27" speed="10.45"/>
            </lane>
        </edge>
        <edge id="L0612">
            <lane id="L0612_0">
                <vehicle id="F13_1" pos="21.41" speed="6.67"/>
                <vehicle id="F13_0" pos="70.01" speed="11.61"/>
                <vehicle id="F10_0" pos="79.93" speed="16.37"/>
            </lane>
            <lane id="L0612_1"/>
            <lane id="L0612_2">
                <vehicle id="F13_2" pos="5.10" speed="0.00"/>
            </lane>
        </edge>
        <edge id="L1211">
            <lane id="L1211_0">
                <vehicle id="F03_0" pos="72.04" speed="15.62"/>
            </lane>
            <lane id="L1211_1"/>
        </edge>
        <edge id="L1314">
            <lane id="L1314_0"/>
            <lane id="L1314_1">
                <vehicle id="F04_0" pos="75.97" speed="15.02"/>
            </lane>
        </edge>
        <edge id="L1913">
            <lane id="L1913_0">
                <vehicle id="F00_1" pos="12.55" speed="0.00"/>
                <vehicle id="F00_0" pos="53.52" speed="10.57"/>
                <vehicle id="F12_0" pos="69.07" speed="12.02"/>
                <vehicle id="rAmb_0" pos="87.65" speed="18.02"/>
            </lane>
            <lane id="L1913_1">
                <vehicle id="F00_2" pos="10.84" speed="3.64"/>
            </lane>
            <lane id="L1913_2">
                <vehicle id="F00_3" pos="11.37" speed="4.21"/>
            </lane>
        </edge>
        <edge id="L2115">
            <lane id="L2115_0"/>
            <lane id="L2115_1">
                <vehicle id="F075_0" pos="73.10" speed="14.52"/>
            </lane>
        </edge>
        <edge id="L2216">
            <lane id="L2216_0">
                <vehicle id="F08_0" pos="66.04" speed="10.35"/>
            </lane>
        </edge>
        <edge id="L2418">
            <lane id="L2418_0"/>
            <lane id="L2418_1"/>
            <lane id="L2418_2">
                <vehicle id="F11_0" pos="76.19" speed="15.38"/>
            </lane>
        </edge>
        <edge id="L2423">
            <lane id="L2423_0"/>
            <lane id="L2423_1">
                <vehicle id="F05_0" pos="71.83" speed="14.70"/>
            </lane>
        </edge>
    </timestep>
    <timestep time="9.00">
        <edge id="L0102">
            <lane id="L0102_0"/>
            <lane id="L0102_1">
                <vehicle id="F02_0" pos="84.38" speed="14.73"/>
            </lane>
        </edge>
        <edge id="L0107">
            <lane id="L0107_0">
                <vehicle id="F01_0" pos="95.04" speed="17.84"/>
            </lane>
            <lane id="L0107_1">
                <vehicle id="F01_3" pos="5.10" speed="0.00"/>
                <vehicle id="F01_2" pos="16.23" speed="6.05"/>
            </lane>
            <lane id="L0107_2">
                <vehicle id="F01_1" pos="51.32" speed="12.33"/>
            </lane>
        </edge>
        <edge id="L0208">
            <lane id="L0208_0">
                <vehicle id="F06_0" pos="72.15" speed="10.69"/>
            </lane>
        </edge>
        <edge id="L0309">
            <lane id="L0309_0"/>
            <lane id="L0309_1">
                <vehicle id="F07_0" pos="91.47" speed="14.37"/>
            </lane>
        </edge>
        <edge id="L0511">
            <lane id="L0511_0">
                <vehicle id="F09_0" pos="77.27" speed="10.00"/>
            </lane>
        </edge>
        <edge id="L0612">
            <lane id="L0612_0">
                <vehicle id="F13_1" pos="29.88" speed="8.47"/>
                <vehicle id="F13_0" pos="81.35" speed="11.34"/>
                <vehicle id="F10_0" pos="97.84" speed="17.91"/>
            </lane>
            <lane id="L0612_1"/>
            <lane id="L0612_2">
                <vehicle id="F13_2" pos="6.95" speed="1.85"/>
            </lane>
        </edge>
        <edge id="L1211">
            <lane id="L1211_0">
                <vehicle id="F03_0" pos="87.66" speed="15.63"/>
            </lane>
            <lane id="L1211_1"/>
        </edge>
        <edge id="L1314">
            <lane id="L1314_0"/>
            <lane id="L1314_1">
                <vehicle id="F04_0" pos="90.80" speed="14.83"/>
            </lane>
        </edge>
        <edge id="L1913">
            <lane id="L1913_0">
                <vehicle id="F00_1" pos="13.90" speed="1.35"/>
                <vehicle id="F00_0" pos="63.00" speed="9.47"/>
                <vehicle id="F12_0" pos="82.78" speed="13.71"/>
                <vehicle id="rAmb_0" pos="106.54" speed="18.89"/>
            </lane>