<?xml version="1.0"?>

<!-- generated on Wed Apr 17 17:30:03 2013 by SUMO sumo Version 0.16.0
<?xml version="1.0" encoding="UTF-8"?>

<configuration xmlns:xsi="http://www.w3.org/2001/XMLSchema-instance" xsi:noNamespaceSchemaLocation="http://sumo.sf.net/xsd/sumoConfiguration.xsd">

    <input>
        <net-file value="../grid6_4.net.xml"/>
        <route-files value="grid6_4.rou.xml"/>
    </input>

    <output>
        <netstate-dump value="netstate6_4.xml"/>
    </output>

    <time>
        <begin value="0"/>
        <end value="200"/>
    </time>

    <processing>
        <time-to-teleport value="-1"/>
    </processing>

</configuration>
-->

<sumo-netstate>
    <timestep time="0.00">
        <edge id="L0102">
            <lane id="L0102_0">
                <vehicle id="F02_0" pos="5.10" speed="0.00"/>
            </lane>
            <lane id="L0102_1"/>
        </edge>
        <edge id="L0107">
            <lane id="L0107_0">
                <vehicle id="F01_0" pos="5.10" speed="0.00"/>
            </lane>
            <lane id="L0107_1"/>
            <lane id="L0107_2"/>
        </edge>
        <edge id="L0208">
            <lane id="L0208_0">
                <vehicle id="F06_0" pos="5.10" speed="0.00"/>
            </lane>
        </edge>
        <edge id="L0309">
            <lane id="L0309_0">
                <vehicle id="F07_0" pos="5.10" speed="0.00"/>
            </lane>
        </edge>
        <edge id="L0511">
            <lane id="L0511_0">
                <vehicle id="F09_0" pos="5.10" speed="0.00"/>
            </lane>
        </edge>
        <edge id="L0612">
            <lane id="L0612_0">
                <vehicle id="F10_0" pos="5.10" speed="0.00"/>
            </lane>
            <lane id="L0612_1"/>
            <lane id="L0612_2"/>
        </edge>
        <edge id="L1211">
            <lane id="L1211_0">
                <vehicle id="F03_0" pos="5.10" speed="0.00"/>
            </lane>
            <lane id="L1211_1"/>
        </edge>
        <edge id="L1314">
            <lane id="L1314_0">
                <vehicle id="F04_0" pos="5.10" speed="0.00"/>
            </lane>
            <lane id="L1314_1"/>
        </edge>
        <edge id="L1812">
            <lane id="L1812_0">
                <vehicle id="F11_0" pos="5.10" speed="0.00"/>
            </lane>
            <lane id="L1812_1"/>
            <lane id="L1812_2"/>
        </edge>
        <edge id="L1913">
            <lane id="L1913_0">
                <vehicle id="F00_0" pos="5.10" speed="0.00"/>
            </lane>
            <lane id="L1913_1"/>
            <lane id="L1913_2"/>
        </edge>
        <edge id="L2115">
            <lane id="L2115_0">
                <vehicle id="F075_0" pos="5.10" speed="0.00"/>
            </lane>
        </edge>
        <edge id="L2216">
            <lane id="L2216_0">
                <vehicle id="F08_0" pos="5.10" speed="0.00"/>
            </lane>
        </edge>
        <edge id="L2423">
            <lane id="L2423_0">
                <vehicle id="F05_0" pos="5.10" speed="0.00"/>
            </lane>
            <lane id="L2423_1"/>
        </edge>
    </timestep>
    <timestep time="1.00">
        <edge id="L0102">
            <lane id="L0102_0">
                <vehicle id="F02_0" pos="7.38" speed="2.28"/>
            </lane>
            <lane id="L0102_1"/>
        </edge>
        <edge id="L0107">
            <lane id="L0107_0">
                <vehicle id="F01_0" pos="6.73" speed="1.63"/>
            </lane>
            <lane id="L0107_1"/>
            <lane id="L0107_2"/>
        </edge>
        <edge id="L0208">
            <lane id="L0208_0">
                <vehicle id="F06_0" pos="6.99" speed="1.89"/>
            </lane>
        </edge>
        <edge id="L0309">
            <lane id="L0309_0">
                <vehicle id="F07_0" pos="6.73" speed="1.63"/>
            </lane>
        </edge>
        <edge id="L0511">
            <lane id="L0511_0">
                <vehicle id="F09_0" pos="7.69" speed="2.59"/>
            </lane>
        </edge>
        <edge id="L0612">
            <lane id="L0612_0">
                <vehicle id="F10_0" pos="7.64" speed="2.54"/>
            </lane>
            <lane id="L0612_1"/>
            <lane id="L0612_2"/>
        </edge>
        <edge id="L1211">
            <lane id="L1211_0">
                <vehicle id="F03_0" pos="6.93" speed="1.83"/>
            </lane>
            <lane id="L1211_1"/>
        </edge>
        <edge id="L1314">
            <lane id="L1314_0">
                <vehicle id="F04_0" pos="7.06" speed="1.96"/>
            </lane>
            <lane id="L1314_1"/>
        </edge>
        <edge id="L1812">
            <lane id="L1812_0">
                <vehicle id="F11_0" pos="7.64" speed="2.54"/>
            </lane>
            <lane id="L1812_1"/>
            <lane id="L1812_2"/>
        </edge>
        <edge id="L1913">
            <lane id="L1913_0">
                <vehicle id="F00_0" pos="6.77" speed="1.67"/>
            </lane>
            <lane id="L1913_1"/>
            <lane id="L1913_2"/>
        </edge>
        <edge id="L2115">
            <lane id="L2115_0">
                <vehicle id="F075_0" pos="6.83" speed="1.73"/>
            </lane>
        </edge>
        <edge id="L2216">
            <lane id="L2216_0">
                <vehicle id="F08_0" pos="7.09" speed="1.99"/>
            </lane>
        </edge>
        <edge id="L2423">
            <lane id="L2423_0">
                <vehicle id="F05_0" pos="6.54" speed="1.44"/>
            </lane>
            <lane id="L2423_1"/>
        </edge>
    </timestep>
    <timestep time="2.00">
        <edge id="L0102">
            <lane id="L0102_0">
                <vehicle id="F02_0" pos="12.20" speed="4.82"/>
            </lane>
            <lane id="L0102_1"/>
        </edge>
        <edge id="L0107">
            <lane id="L0107_0">
                <vehicle id="F01_0" pos="10.08" speed="3.35"/>
            </lane>
            <lane id="L0107_1"/>
            <lane id="L0107_2"/>
        </edge>
        <edge id="L0208">
            <lane id="L0208_0">
                <vehicle id="F06_0" pos="10.82" speed="3.82"/>
            </lane>
        </edge>
        <edge id="L0309">
            <lane id="L0309_0">
                <vehicle id="F07_0" pos="10.56" speed="3.83"/>
            </lane>
        </edge>
        <edge id="L0511">
            <lane id="L0511_0">
                <vehicle id="F09_0" pos="12.06" speed="4.37"/>
            </lane>
        </edge>
        <edge id="L0612">
            <lane id="L0612_0">
                <vehicle id="F10_0" pos="12.37" speed="4.72"/>
            </lane>
            <lane id="L0612_1"/>
            <lane id="L0612_2"/>
        </edge>
        <edge id="L1211">
            <lane id="L1211_0">
                <vehicle id="F03_0" pos="10.23" speed="3.29"/>
            </lane>
            <lane id="L1211_1"/>
        </edge>
        <edge id="L1314">
            <lane id="L1314_0">
                <vehicle id="F04_0" pos="11.54" speed="4.48"/>
            </lane>
            <lane id="L1314_1"/>
        </edge>
        <edge id="L1812">
            <lane id="L1812_0">
                <vehicle id="F11_0" pos="12.44" speed="4.80"/>
            </lane>
            <lane id="L1812_1"/>
            <lane id="L1812_2"/>
        </edge>
        <edge id="L1913">
            <lane id="L1913_0">
                <vehicle id="F00_0" pos="10.31" speed="3.54"/>
            </lane>
            <lane id="L1913_1"/>
            <lane id="L1913_2"/>
        </edge>
        <edge id="L2115">
            <lane id="L2115_0">
                <vehicle id="F075_0" pos="9.93" speed="3.10"/>
            </lane>
        </edge>
        <edge id="L2216">
            <lane id="L2216_0">
                <vehicle id="F08_0" pos="10.62" speed="3.52"/>
            </lane>
        </edge>
        <edge id="L2423">
            <lane id="L2423_0">
                <vehicle id="F05_0" pos="10.00" speed="3.45"/>
            </lane>
            <lane id="L2423_1"/>
        </edge>
    </timestep>
    <timestep time="3.00">
        <edge id="L0102">
            <lane id="L0102_0">
                <vehicle id="F02_0" pos="19.41" speed="7.21"/>
            </lane>
            <lane id="L0102_1"/>
        </edge>
        <edge id="L0107">
            <lane id="L0107_0">
                <vehicle id="F01_0" pos="15.03" speed="4.95"/>
            </lane>
            <lane id="L0107_1"/>
            <lane id="L0107_2"/>
        </edge>
        <edge id="L0208">
            <lane id="L0208_0">
                <vehicle id="F06_0" pos="16.00" speed="5.18"/>
            </lane>
        </edge>
        <edge id="L0309">
            <lane id="L0309_0">
                <vehicle id="F07_0" pos="16.96" speed="6.39"/>
            </lane>
        </edge>
        <edge id="L0511">
            <lane id="L0511_0">
                <vehicle id="F09_0" pos="18.14" speed="6.08"/>
            </lane>
        </edge>
        <edge id="L0612">
            <lane id="L0612_0">
                <vehicle id="F10_0" pos="19.30" speed="6.93"/>
            </lane>
            <lane id="L0612_1"/>
            <lane id="L0612_2"/>
        </edge>
        <edge id="L1211">
            <lane id="L1211_0">
                <vehicle id="F03_0" pos="16.08" speed="5.85"/>
            </lane>
            <lane id="L1211_1"/>
        </edge>
        <edge id="L1314">
            <lane id="L1314_0">
                <vehicle id="F04_0" pos="18.32" speed="6.78"/>
            </lane>
            <lane id="L1314_1"/>
        </edge>
        <edge id="L1812">
            <lane id="L1812_0">
                <vehicle id="F11_0" pos="19.13" speed="6.69"/>
            </lane>
            <lane id="L1812_1"/>
            <lane id="L1812_2"/>
        </edge>
        <edge id="L1913">
            <lane id="L1913_0">
                <vehicle id="F00_0" pos="15.93" speed="5.62"/>
            </lane>
            <lane id="L1913_1">
                <vehicle id="F00_1" pos="5.10" speed="0.00"/>
            </lane>
            <lane id="L1913_2"/>
        </edge>
        <edge id="L2115">
            <lane id="L2115_0">
                <vehicle id="F075_0" pos="15.20" speed="5.27"/>
            </lane>
        </edge>
        <edge id="L2216">
            <lane id="L2216_0">
                <vehicle id="F08_0" pos="16.57" speed="5.95"/>
            </lane>
        </edge>
        <edge id="L2423">
            <lane id="L2423_0">
                <vehicle id="F05_0" pos="14.90" speed="4.90"/>
            </lane>
            <lane id="L2423_1"/>
        </edge>
    </timestep>
    <timestep time="4.00">
        <edge id="L0102">
            <lane id="L0102_0">
                <vehicle id="F02_0" pos="28.16" speed="8.76"/>
            </lane>
            <lane id="L0102_1"/>
        </edge>
        <edge id="L0107">
            <lane id="L0107_0">
                <vehicle id="F01_0" pos="22.27" speed="7.24"/>
            </lane>
            <lane id="L0107_1">
                <vehicle id="F01_1" pos="5.10" speed="0.00"/>
            </lane>
            <lane id="L0107_2"/>
        </edge>
        <edge id="L0208">
            <lane id="L0208_0">
                <vehicle id="F06_0" pos="23.66" speed="7.66"/>
            </lane>
        </edge>
        <edge id="L0309">
            <lane id="L0309_0">
                <vehicle id="F07_0" pos="25.08" speed="8.12"/>
            </lane>
        </edge>
        <edge id="L0511">
            <lane id="L0511_0">
                <vehicle id="F09_0" pos="25.89" speed="7.75"/>
            </lane>
        </edge>
        <edge id="L0612">
            <lane id="L0612_0">
                <vehicle id="F10_0" pos="28.09" speed="8.79"/>
            </lane>
            <lane id="L0612_1"/>
            <lane id="L0612_2"/>
        </edge>
        <edge id="L1211">
            <lane id="L1211_0">
                <vehicle id="F03_0" pos="24.31" speed="8.23"/>
            </lane>
            <lane id="L1211_1"/>
        </edge>
        <edge id="L1314">
            <lane id="L1314_0">
                <vehicle id="F04_0" pos="27.40" speed="9.08"/>
            </lane>
            <lane id="L1314_1"/>
        </edge>
        <edge id="L1812">
            <lane id="L1812_0">
                <vehicle id="F11_0" pos="28.07" speed="8.95"/>
            </lane>
            <lane id="L1812_1">
                <vehicle id="F11_1" pos="5.10" speed="0.00"/>
            </lane>
            <lane id="L1812_2"/>
        </edge>
        <edge id="L1913">
            <lane id="L1913_0">
                <vehicle id="F00_0" pos="22.90" speed="6.97"/>
            </lane>
            <lane id="L1913_1">
                <vehicle id="F00_1" pos="7.54" speed="2.44"/>
            </lane>
            <lane id="L1913_2"/>
        </edge>
        <edge id="L2115">
            <lane id="L2115_0">
                <vehicle id="F075_0" pos="22.30" speed="7.10"/>
            </lane>
        </edge>
        <edge id="L2216">
            <lane id="L2216_0">
                <vehicle id="F08_0" pos="24.23" speed="7.66"/>
            </lane>
        </edge>
        <edge id="L2423">
            <lane id="L2423_0">
                <vehicle id="F05_0" pos="21.86" speed="6.97"/>
            </lane>
            <lane id="L2423_1"/>
        </edge>
    </timestep>
    <timestep time="5.00">
        <edge id="L0102">
            <lane id="L0102_0">
                <vehicle id="F02_0" pos="39.48" speed="11.32"/>
            </lane>
            <lane id="L0102_1"/>
        </edge>
        <edge id="L0107">
            <lane id="L0107_0">
                <vehicle id="F01_0" pos="31.91" speed="9.64"/>
            </lane>
            <lane id="L0107_1">
                <vehicle id="F01_1" pos="6.45" speed="1.35"/>
            </lane>
            <lane id="L0107_2"/>
        </edge>
        <edge id="L0208">
            <lane id="L0208_0">
                <vehicle id="F06_0" pos="33.56" speed="9.90"/>
            </lane>
        </edge>
        <edge id="L0309">
            <lane id="L0309_0">
                <vehicle id="F07_0" pos="35.10" speed="10.01"/>
            </lane>
        </edge>
        <edge id="L0511">
            <lane id="L0511_0">
                <vehicle id="F09_0" pos="35.03" speed="9.14"/>
            </lane>
        </edge>
        <edge id="L0612">
            <lane id="L0612_0">
                <vehicle id="F10_0" pos="38.65" speed="10.56"/>
            </lane>
            <lane id="L0612_1"/>
            <lane id="L0612_2"/>
        </edge>
        <edge id="L1211">
            <lane id="L1211_0">
                <vehicle id="F03_0" pos="34.91" speed="10.60"/>
            </lane>
            <lane id="L1211_1"/>
        </edge>
        <edge id="L1314">
            <lane id="L1314_0">
                <vehicle id="F04_0" pos="37.85" speed="10.44"/>
            </lane>
            <lane id="L1314_1"/>
        </edge>
        <edge id="L1812">
            <lane id="L1812_0">
                <vehicle id="F11_0" pos="39.40" speed="11.33"/>
            </lane>
            <lane id="L1812_1">
                <vehicle id="F11_1" pos="6.48" speed="1.38"/>
            </lane>
            <lane id="L1812_2"/>
        </edge>
        <edge id="L1913">
            <lane id="L1913_0">
                <vehicle id="F00_0" pos="31.72" speed="8.81"/>
            </lane>
            <lane id="L1913_1">
                <vehicle id="F00_1" pos="12.17" speed="4.64"/>
            </lane>
            <lane id="L1913_2"/>
        </edge>
        <edge id="L2115">
            <lane id="L2115_0">
                <vehicle id="F075_0" pos="31.91" speed="9.61"/>
            </lane>
        </edge>
        <edge id="L2216">
            <lane id="L2216_0">
                <vehicle id="F08_0" pos="34.25" speed="10.02"/>
            </lane>
        </edge>
        <edge id="L2423">
            <lane id="L2423_0">
                <vehicle id="F05_0" pos="30.79" speed="8.92"/>
            </lane>
            <lane id="L2423_1"/>
        </edge>
    </timestep>
    <timestep time="6.00">
        <edge id="L0102">
            <lane id="L0102_0">
                <vehicle id="F02_0" pos="52.95" speed="13.46"/>
            </lane>
            <lane id="L0102_1"/>
        </edge>
        <edge id="L0107">
            <lane id="L0107_0">
                <vehicle id="F01_0" pos="43.21" speed="11.30"/>
            </lane>
            <lane id="L0107_1">
                <vehicle id="F01_1" pos="10.00" speed="3.54"/>
            </lane>
            <lane id="L0107_2"/>
        </edge>
        <edge id="L0208">
            <lane id="L0208_0">
                <vehicle id="F06_0" pos="44.37" speed="10.80"/>
            </lane>
        </edge>
        <edge id="L0309">
            <lane id="L0309_0">
                <vehicle id="F07_0" pos="46.00" speed="10.90"/>
            </lane>
        </edge>
        <edge id="L0511">
            <lane id="L0511_0">
                <vehicle id="F09_0" pos="45.33" speed="10.30"/>
            </lane>
        </edge>
        <edge id="L0612">
            <lane id="L0612_0">
                <vehicle id="F10_0" pos="51.70" speed="13.05"/>
            </lane>
            <lane id="L0612_1"/>
            <lane id="L0612_2"/>
        </edge>
        <edge id="L1211">
            <lane id="L1211_0">
                <vehicle id="F03_0" pos="48.05" speed="13.14"/>
            </lane>
            <lane id="L1211_1"/>
        </edge>
        <edge id="L1314">
            <lane id="L1314_0">
                <vehicle id="F04_0" pos="50.66" speed="12.81"/>
            </lane>
            <lane id="L1314_1"/>
        </edge>
        <edge id="L1812">
            <lane id="L1812_0">
                <vehicle id="F11_0" pos="53.06" speed="13.66"/>
            </lane>
            <lane id="L1812_1">
                <vehicle id="F11_1" pos="9.18" speed="2.69"/>
            </lane>
            <lane id="L1812_2"/>
        </edge>
        <edge id="L1913">
            <lane id="L1913_0">
                <vehicle id="F00_0" pos="42.39" speed="10.68"/>
            </lane>
            <lane id="L1913_1">
                <vehicle id="F00_1" pos="18.97" speed="6.80"/>
            </lane>
            <lane id="L1913_2">
                <vehicle id="F00_2" pos="5.10" speed="0.00"/>
            </lane>
        </edge>
        <edge id="L2115">
            <lane id="L2115_0">
                <vehicle id="F075_0" pos="42.54" speed="10.63"/>
            </lane>
        </edge>
        <edge id="L2216">
            <lane id="L2216_0">
                <vehicle id="F08_0" pos="44.63" speed="10.38"/>
            </lane>
        </edge>
        <edge id="L2423">
            <lane id="L2423_0">
                <vehicle id="F05_0" pos="42.20" speed="11.41"/>
            </lane>
            <lane id="L2423_1"/>
        </edge>
    </timestep>
    <timestep time="7.00">
        <edge id="L0102">
            <lane id="L0102_0">
                <vehicle id="F02_0" pos="67.78" speed="14.84"/>
            </lane>
            <lane id="L0102_1"/>
        </edge>
        <edge id="L0107">
            <lane id="L0107_0">
                <vehicle id="F01_0" pos="55.97" speed="12.76"/>
            </lane>
            <lane id="L0107_1">
                <vehicle id="F01_1" pos="15.07" speed="5.07"/>
            </lane>
            <lane id="L0107_2"/>
        </edge>
        <edge id="L0208">
            <lane id="L0208_0">
                <vehicle id="F06_0" pos="54.34" speed="9.98"/>
            </lane>
        </edge>
        <edge id="L0309">
            <lane id="L0309_0">
                <vehicle id="F07_0" pos="56.54" speed="10.54"/>
            </lane>
        </edge>
        <edge id="L0511">
            <lane id="L0511_0">
                <vehicle id="F09_0" pos="55.95" speed="10.63"/>
            </lane>
        </edge>
        <edge id="L0612">
            <lane id="L0612_0">
                <vehicle id="F10_0" pos="67.21" speed="15.52"/>
            </lane>
            <lane id="L0612_1"/>
            <lane id="L0612_2"/>
        </edge>
        <edge id="L1211">
            <lane id="L1211_0">
                <vehicle id="F03_0" pos="63.30" speed="15.26"/>
            </lane>
            <lane id="L1211_1"/>
        </edge>
        <edge id="L1314">
            <lane id="L1314_0">
                <vehicle id="F04_0" pos="66.03" speed="15.38"/>
            </lane>
            <lane id="L1314_1"/>
        </edge>
        <edge id="L1812">
            <lane id="L1812_0">
                <vehicle id="F11_0" pos="68.05" speed="14.99"/>
            </lane>
            <lane id="L1812_1">
                <vehicle id="F11_1" pos="13.81" speed="4.63"/>
            </lane>
            <lane id="L1812_2"/>
        </edge>
        <edge id="L1913">
            <lane id="L1913_0">
                <vehicle id="F00_0" pos="55.19" speed="12.80"/>
            </lane>
            <lane id="L1913_1">
                <vehicle id="F00_1" pos="27.61" speed="8.64"/>
            </lane>
            <lane id="L1913_2">
                <vehicle id="F00_2" pos="7.19" speed="2.09"/>
            </lane>
        </edge>
        <edge id="L2115">
            <lane id="L2115_0">
                <vehicle id="F075_0" pos="52.80" speed="10.26"/>
            </lane>
        </edge>
        <edge id="L2216">
            <lane id="L2216_0">
                <vehicle id="F08_0" pos="55.22" speed="10.59"/>
            </lane>
        </edge>
        <edge id="L2423">
            <lane id="L2423_0">
                <vehicle id="F05_0" pos="55.67" speed="13.47"/>
            </lane>
            <lane id="L2423_1"/>
        </edge>
    </timestep>
    <timestep time="8.00">
        <edge id="L0102">
            <lane id="L0102_0">
                <vehicle id="F02_0" pos="83.07" speed="15.28"/>
            </lane>
            <lane id="L0102_1"/>
        </edge>
        <edge id="L0107">
            <lane id="L0107_0">
                <vehicle id="F01_0" pos="70.32" speed="14.35"/>
            </lane>
            <lane id="L0107_1">
                <vehicle id="F01_1" pos="21.47" speed="6.41"/>
            </lane>
            <lane id="L0107_2"/>
        </edge>
        <edge id="L0208">
            <lane id="L0208_0">
                <vehicle id="F06_0" pos="64.60" speed="10.25"/>
            </lane>
        </edge>
        <edge id="L0309">
            <lane id="L0309_0">
                <vehicle id="F07_0" pos="67.56" speed="11.02"/>
            </lane>
        </edge>
        <edge id="L0511">
            <lane id="L0511_0">
                <vehicle id="F09_0" pos="66.21" speed="10.25"/>
            </lane>
        </edge>
        <edge id="L0612">
            <lane id="L0612_0">
                <vehicle id="F10_0" pos="84.47" speed="17.25"/>
            </lane>
            <lane id="L0612_1"/>
            <lane id="L0612_2"/>
        </edge>
        <edge id="L1211">
            <lane id="L1211_0">
                <vehicle id="F03_0" pos="78.35" speed="15.04"/>
            </lane>
            <lane id="L1211_1"/>
        </edge>
        <edge id="L1314">
            <lane id="L1314_0">
                <vehicle id="F04_0" pos="81.55" speed="15.52"/>
            </lane>
            <lane id="L1314_1"/>
        </edge>
        <edge id="L1812">
            <lane id="L1812_0">
                <vehicle id="F11_0" pos="84.73" speed="16.68"/>
            </lane>
            <lane id="L1812_1">
                <vehicle id="F11_1" pos="20.29" speed="6.48"/>
            </lane>
            <lane id="L1812_2"/>
        </edge>
        <edge id="L1913">
            <lane id="L1913_0">
                <vehicle id="F00_0" pos="70.15" speed="14.96"/>
            </lane>
            <lane id="L1913_1">
                <vehicle id="F00_1" pos="38.46" speed="10.85"/>
            </lane>
            <lane id="L1913_2">
                <vehicle id="F00_2" pos="10.75" speed="3.56"/>
            </lane>
        </edge>
        <edge id="L2115">
            <lane id="L2115_0">
                <vehicle id="F075_0" pos="63.80" speed="11.00"/>
            </lane>
        </edge>
        <edge id="L2216">
            <lane id="L2216_0">
                <vehicle id="F08_0" pos="65.25" speed="10.03"/>
            </lane>
        </edge>
        <edge id="L2423">
            <lane id="L2423_0">
                <vehicle id="F05_0" pos="70.79" speed="15.12"/>
            </lane>
            <lane id="L2423_1"/>
        </edge>
    </timestep>
    <timestep time="9.00">
        <edge id="L0102">
            <lane id="L0102_0">
                <vehicle id="F02_0" pos="98.16" speed="15.09"/>
            </lane>
            <lane id="L0102_1"/>
        </edge>
        <edge id="L0107">
            <lane id="L0107_0">
                <vehicle id="F01_0" pos="86.41" speed="16.09"/>
            </lane>
            <lane id="L0107_1">
                <vehicle id="F01_1" pos="30.43" speed="8.95"/>
            </lane>
            <lane id="L0107_2">
                <vehicle id="F01_2" pos="5.10" speed="0.00"/>
            </lane>
        </edge>
        <edge id="L0208">
            <lane id="L0208_0">
                <vehicle id="F06_0" pos="75.01" speed="10.41"/>
            </lane>
        </edge>
        <edge id="L0309">
            <lane id="L0309_0">
                <vehicle id="F07_0" pos="78.38" speed="10.82"/>
            </lane>
        </edge>
        <edge id="L0511">
            <lane id="L0511_0">
                <vehicle id="F09_0" pos="76.89" speed="10.69"/>
            </lane>
        </edge>
        <edge id="L0612">
            <lane id="L0612_0">
                <vehicle id="F10_0" pos="103.87" speed="19.41"/>
            </lane>
            <lane id="L0612_1"/>
            <lane id="L0612_2"/>
        </edge>
        <edge id="L1211">
            <lane id="L1211_0">
                <vehicle id="F03_0" pos="92.82" speed="14.47"/>
            </lane>
            <lane id="L1211_1"/>
        </edge>
        <edge id="L1314">
            <lane id="L1314_0">
                <vehicle id="F04_0" pos="97.00" speed="15.45"/>
            </lane>
            <lane id="L1314_1"/>
        </edge>
        <edge id="L1812">
            <lane id="L1812_0">
                <vehicle id="F11_0" pos="102.90" speed="18.18"/>
            </lane>
            <lane id="L1812_1">
                <vehicle id="F11_1" pos="28.75" speed="8.46"/>
            </lane>
            <lane id="L1812_2">
                <vehicle id="F11_2" pos="5.10" speed="0.00"/>
            </lane>
        </edge>
        <edge id="L1913">
            <lane id="L1913_0">
                <vehicle id="F00_3" pos="5.10" speed="0.00"/>
                <vehicle id="F00_0" pos="86.44" speed="16.28"/>
            </lane>
            <lane id="L1913_1">
                <vehicle id="F00_1" pos="51.40" speed="12.94"/>
            </lane>
            <lane id="L1913_2">
                <vehicle id="F00_2" pos="16.42" speed="5.67"/>
            </lane>
        </edge>
        <edge id="L2115">
            <lane id="L2115_0">
                <vehicle id="F075_0" pos="74.09" speed="10.29"/>
            </lane>
        </edge>
        <edge id="L2216">
            <lane id="L2216_0">
                <vehicle id="F08_0" pos="75.66" speed="10.41"/>
            </lane>
        </edge>
        <edge id="L2423">
            <lane id="L2423_0">
                <vehicle id="F05_0" pos="85.56" speed="14.77"/>
            </lane>
            <lane id="L2423_1"/>
        </edge>
    </timestep>
    <timestep time="10.00">
        <edge id="L0102">
            <lane id="L0102_0">
                <vehicle id="F02_0" pos="112.77" speed="14.61"/>
            </lane>
            <lane id="L0102_1"/>
        </edge>
        <edge id="L0107">
            <lane id="L0107_0">
                <vehicle id="F01_0" pos="104.64" speed="18.24"/>
            </lane>
            <lane id="L0107_1">
                <vehicle id="F01_1" pos="40.91" speed="10.49"/>
            </lane>
            <lane id="L0107_2">
                <vehicle id="F01_2" pos="7.57" speed="2.47"/>
            </lane>
        </edge>
        <edge id="L0208">
            <lane id="L0208_0">
                <vehicle id="F06_0" pos="85.58" speed="10.57"/>
            </lane>
        </edge>
        <edge id="L0309">
            <lane id="L0309_0">
                <vehicle id="F07_0" pos="89.12" speed="10.74"/>
            </lane>
        </edge>
        <edge id="L0511">
            <lane id="L0511_0">
                <vehicle id="F09_0" pos="88.07" speed="11.18"/>
            </lane>
        </edge>
        <edge id="L0612">
            <lane id="L0612_0">
                <vehicle id="F10_0" pos="123.78" speed="19.90"/>
            </lane>
            <lane id="L0612_1"/>
            <lane id="L0612_2"/>
        </edge>
        <edge id="L1211">
            <lane id="L1211_0">
                <vehicle id="F03_0" pos="107.30" speed="14.48"/>
            </lane>
            <lane id="L1211_1"/>
        </edge>
        <edge id="L1314">
            <lane id="L1314_0">
                <vehicle id="F04_0" pos="112.02" speed="15.02"/>
            </lane>
            <lane id="L1314_1"/>
        </edge>
        <edge id="L1812">
            <lane id="L1812_0">
                <vehicle id="F11_0" pos="121.87" speed="18.97"/>
            </lane>
            <lane id="L1812_1">
                <vehicle id="F11_1" pos="38.97" speed="10.22"/>
            </lane>
            <lane id="L1812_2">
                <vehicle id="F11_2" pos="6.95" speed="1.85"/>
            </lane>
        </edge>
        <edge id="L1913">
            <lane id="L1913_0">
                <vehicle id="F00_3" pos="7.68" speed="2.58"/>
                <vehicle id="F00_0" pos="104.04" speed="17.61"/>
            </lane>
            <lane id="L1913_1">
                <vehicle id="F00_1" pos="65.71" speed="14.31"/>