<?xml version="1.0"?>

<!-- generated on Wed Apr 17 14:38:30 2013 by SUMO sumo Version 0.16.0
<?xml version="1.0" encoding="UTF-8"?>

<configuration xmlns:xsi="http://www.w3.org/2001/XMLSchema-instance" xsi:noNamespaceSchemaLocation="http://sumo.sf.net/xsd/sumoConfiguration.xsd">

    <input>
        <net-file value="../grid6_4.net.xml"/>
        <route-files value="grid6_4.rou.xml"/>
    </input>

    <output>
        <netstate-dump value="netstate6_4.xml"/>
    </output>

    <time>
        <begin value="0"/>
        <end value="200"/>
    </time>

    <processing>
        <time-to-teleport value="-1"/>
    </processing>

</configuration>
-->

<sumo-netstate>
    <timestep time="0.00">
        <edge id="L0102">
            <lane id="L0102_0"/>
            <lane id="L0102_1">
                <vehicle id="F02_0" pos="5.10" speed="0.00"/>
            </lane>
        </edge>
        <edge id="L0107">
            <lane id="L0107_0"/>
            <lane id="L0107_1">
                <vehicle id="F01_0" pos="5.10" speed="0.00"/>
            </lane>
            <lane id="L0107_2"/>
        </edge>
        <edge id="L0208">
            <lane id="L0208_0">
                <vehicle id="F06_0" pos="5.10" speed="0.00"/>
            </lane>
        </edge>
        <edge id="L0309">
            <lane id="L0309_0">
                <vehicle id="F07_0" pos="5.10" speed="0.00"/>
            </lane>
        </edge>
        <edge id="L0511">
            <lane id="L0511_0">
                <vehicle id="F09_0" pos="5.10" speed="0.00"/>
            </lane>
        </edge>
        <edge id="L0612">
            <lane id="L0612_0">
                <vehicle id="F10_0" pos="5.10" speed="0.00"/>
            </lane>
            <lane id="L0612_1">
                <vehicle id="F13_0" pos="5.10" speed="0.00"/>
            </lane>
            <lane id="L0612_2"/>
        </edge>
        <edge id="L1211">
            <lane id="L1211_0"/>
            <lane id="L1211_1">
                <vehicle id="F03_0" pos="5.10" speed="0.00"/>
            </lane>
        </edge>
        <edge id="L1314">
            <lane id="L1314_0">
                <vehicle id="F04_0" pos="5.10" speed="0.00"/>
            </lane>
            <lane id="L1314_1"/>
        </edge>
        <edge id="L1913">
            <lane id="L1913_0"/>
            <lane id="L1913_1">
                <vehicle id="F00_0" pos="5.10" speed="0.00"/>
            </lane>
            <lane id="L1913_2"/>
        </edge>
        <edge id="L2115">
            <lane id="L2115_0">
                <vehicle id="F075_0" pos="5.10" speed="0.00"/>
            </lane>
        </edge>
        <edge id="L2216">
            <lane id="L2216_0">
                <vehicle id="F08_0" pos="5.10" speed="0.00"/>
            </lane>
        </edge>
        <edge id="L2418">
            <lane id="L2418_0">
                <vehicle id="F11_0" pos="5.10" speed="0.00"/>
            </lane>
            <lane id="L2418_1"/>
            <lane id="L2418_2"/>
        </edge>
        <edge id="L2423">
            <lane id="L2423_0">
                <vehicle id="F05_0" pos="5.10" speed="0.00"/>
            </lane>
            <lane id="L2423_1"/>
        </edge>
    </timestep>
    <timestep time="1.00">
        <edge id="L0102">
            <lane id="L0102_0"/>
            <lane id="L0102_1">
                <vehicle id="F02_0" pos="7.32" speed="2.22"/>
            </lane>
        </edge>
        <edge id="L0107">
            <lane id="L0107_0"/>
            <lane id="L0107_1">
                <vehicle id="F01_0" pos="6.55" speed="1.45"/>
            </lane>
            <lane id="L0107_2"/>
        </edge>
        <edge id="L0208">
            <lane id="L0208_0">
                <vehicle id="F06_0" pos="7.50" speed="2.40"/>
            </lane>
        </edge>
        <edge id="L0309">
            <lane id="L0309_0">
                <vehicle id="F07_0" pos="7.42" speed="2.32"/>
            </lane>
        </edge>
        <edge id="L0511">
            <lane id="L0511_0">
                <vehicle id="F09_0" pos="7.29" speed="2.19"/>
            </lane>
        </edge>
        <edge id="L0612">
            <lane id="L0612_0">
                <vehicle id="F10_0" pos="7.26" speed="2.16"/>
            </lane>
            <lane id="L0612_1">
                <vehicle id="F13_0" pos="7.20" speed="2.10"/>
            </lane>
            <lane id="L0612_2"/>
        </edge>
        <edge id="L1211">
            <lane id="L1211_0"/>
            <lane id="L1211_1">
                <vehicle id="F03_0" pos="7.08" speed="1.98"/>
            </lane>
        </edge>
        <edge id="L1314">
            <lane id="L1314_0">
                <vehicle id="F04_0" pos="6.66" speed="1.56"/>
            </lane>
            <lane id="L1314_1"/>
        </edge>
        <edge id="L1913">
            <lane id="L1913_0"/>
            <lane id="L1913_1">
                <vehicle id="F00_0" pos="6.78" speed="1.68"/>
            </lane>
            <lane id="L1913_2"/>
        </edge>
        <edge id="L2115">
            <lane id="L2115_0">
                <vehicle id="F075_0" pos="6.85" speed="1.75"/>
            </lane>
        </edge>
        <edge id="L2216">
            <lane id="L2216_0">
                <vehicle id="F08_0" pos="7.39" speed="2.29"/>
            </lane>
        </edge>
        <edge id="L2418">
            <lane id="L2418_0">
                <vehicle id="F11_0" pos="7.08" speed="1.98"/>
            </lane>
            <lane id="L2418_1"/>
            <lane id="L2418_2"/>
        </edge>
        <edge id="L2423">
            <lane id="L2423_0">
                <vehicle id="F05_0" pos="7.04" speed="1.94"/>
            </lane>
            <lane id="L2423_1"/>
        </edge>
    </timestep>
    <timestep time="2.00">
        <edge id="L0102">
            <lane id="L0102_0"/>
            <lane id="L0102_1">
                <vehicle id="F02_0" pos="11.13" speed="3.81"/>
            </lane>
        </edge>
        <edge id="L0107">
            <lane id="L0107_0"/>
            <lane id="L0107_1">
                <vehicle id="F01_0" pos="9.40" speed="2.85"/>
            </lane>
            <lane id="L0107_2"/>
        </edge>
        <edge id="L0208">
            <lane id="L0208_0">
                <vehicle id="F06_0" pos="11.54" speed="4.04"/>
            </lane>
        </edge>
        <edge id="L0309">
            <lane id="L0309_0">
                <vehicle id="F07_0" pos="11.30" speed="3.88"/>
            </lane>
        </edge>
        <edge id="L0511">
            <lane id="L0511_0">
                <vehicle id="F09_0" pos="12.04" speed="4.75"/>
            </lane>
        </edge>
        <edge id="L0612">
            <lane id="L0612_0">
                <vehicle id="F10_0" pos="11.55" speed="4.29"/>
            </lane>
            <lane id="L0612_1">
                <vehicle id="F13_0" pos="11.88" speed="4.69"/>
            </lane>
            <lane id="L0612_2"/>
        </edge>
        <edge id="L1211">
            <lane id="L1211_0"/>
            <lane id="L1211_1">
                <vehicle id="F03_0" pos="10.69" speed="3.62"/>
            </lane>
        </edge>
        <edge id="L1314">
            <lane id="L1314_0">
                <vehicle id="F04_0" pos="9.64" speed="2.97"/>
            </lane>
            <lane id="L1314_1">
                <vehicle id="F04_1" pos="5.10" speed="0.00"/>
            </lane>
        </edge>
        <edge id="L1913">
            <lane id="L1913_0"/>
            <lane id="L1913_1">
                <vehicle id="F00_0" pos="11.01" speed="4.22"/>
            </lane>
            <lane id="L1913_2"/>
        </edge>
        <edge id="L2115">
            <lane id="L2115_0">
                <vehicle id="F075_0" pos="10.45" speed="3.60"/>
            </lane>
        </edge>
        <edge id="L2216">
            <lane id="L2216_0">
                <vehicle id="F08_0" pos="11.66" speed="4.28"/>
            </lane>
        </edge>
        <edge id="L2418">
            <lane id="L2418_0">
                <vehicle id="F11_0" pos="10.81" speed="3.73"/>
            </lane>
            <lane id="L2418_1"/>
            <lane id="L2418_2"/>
        </edge>
        <edge id="L2423">
            <lane id="L2423_0">
                <vehicle id="F05_0" pos="10.42" speed="3.38"/>
            </lane>
            <lane id="L2423_1"/>
        </edge>
    </timestep>
    <timestep time="3.00">
        <edge id="L0102">
            <lane id="L0102_0"/>
            <lane id="L0102_1">
                <vehicle id="F02_0" pos="17.15" speed="6.02"/>
            </lane>
        </edge>
        <edge id="L0107">
            <lane id="L0107_0"/>
            <lane id="L0107_1">
                <vehicle id="F01_0" pos="14.32" speed="4.92"/>
            </lane>
            <lane id="L0107_2"/>
        </edge>
        <edge id="L0208">
            <lane id="L0208_0">
                <vehicle id="F06_0" pos="17.01" speed="5.47"/>
            </lane>
        </edge>
        <edge id="L0309">
            <lane id="L0309_0">
                <vehicle id="F07_0" pos="16.54" speed="5.24"/>
            </lane>
        </edge>
        <edge id="L0511">
            <lane id="L0511_0">
                <vehicle id="F09_0" pos="18.49" speed="6.45"/>
            </lane>
        </edge>
        <edge id="L0612">
            <lane id="L0612_0">
                <vehicle id="F10_0" pos="17.78" speed="6.23"/>
            </lane>
            <lane id="L0612_1">
                <vehicle id="F13_0" pos="18.00" speed="6.12"/>
            </lane>
            <lane id="L0612_2"/>
        </edge>
        <edge id="L1211">
            <lane id="L1211_0"/>
            <lane id="L1211_1">
                <vehicle id="F03_0" pos="16.60" speed="5.90"/>
            </lane>
        </edge>
        <edge id="L1314">
            <lane id="L1314_0">
                <vehicle id="F04_0" pos="14.01" speed="4.37"/>
            </lane>
            <lane id="L1314_1">
                <vehicle id="F04_1" pos="7.46" speed="2.36"/>
            </lane>
        </edge>
        <edge id="L1913">
            <lane id="L1913_0"/>
            <lane id="L1913_1">
                <vehicle id="F00_0" pos="16.98" speed="5.98"/>
            </lane>
            <lane id="L1913_2"/>
        </edge>
        <edge id="L2115">
            <lane id="L2115_0">
                <vehicle id="F075_0" pos="15.91" speed="5.46"/>
            </lane>
        </edge>
        <edge id="L2216">
            <lane id="L2216_0">
                <vehicle id="F08_0" pos="18.11" speed="6.45"/>
            </lane>
        </edge>
        <edge id="L2418">
            <lane id="L2418_0">
                <vehicle id="F11_0" pos="16.04" speed="5.23"/>
            </lane>
            <lane id="L2418_1"/>
            <lane id="L2418_2"/>
        </edge>
        <edge id="L2423">
            <lane id="L2423_0">
                <vehicle id="F05_0" pos="15.71" speed="5.29"/>
            </lane>
            <lane id="L2423_1"/>
        </edge>
    </timestep>
    <timestep time="4.00">
        <edge id="L0102">
            <lane id="L0102_0"/>
            <lane id="L0102_1">
                <vehicle id="F02_0" pos="24.66" speed="7.51"/>
            </lane>
        </edge>
        <edge id="L0107">
            <lane id="L0107_0"/>
            <lane id="L0107_1">
                <vehicle id="F01_0" pos="21.74" speed="7.42"/>
            </lane>
            <lane id="L0107_2"/>
        </edge>
        <edge id="L0208">
            <lane id="L0208_0">
                <vehicle id="F06_0" pos="24.62" speed="7.61"/>
            </lane>
        </edge>
        <edge id="L0309">
            <lane id="L0309_0">
                <vehicle id="F07_0" pos="24.37" speed="7.83"/>
            </lane>
        </edge>
        <edge id="L0511">
            <lane id="L0511_0">
                <vehicle id="F09_0" pos="26.25" speed="7.76"/>
            </lane>
        </edge>
        <edge id="L0612">
            <lane id="L0612_0">
                <vehicle id="F10_0" pos="26.20" speed="8.42"/>
            </lane>
            <lane id="L0612_1">
                <vehicle id="F13_0" pos="25.57" speed="7.56"/>
            </lane>
            <lane id="L0612_2"/>
        </edge>
        <edge id="L1211">
            <lane id="L1211_0"/>
            <lane id="L1211_1">
                <vehicle id="F03_0" pos="23.86" speed="7.26"/>
            </lane>
        </edge>
        <edge id="L1314">
            <lane id="L1314_0">
                <vehicle id="F04_3" pos="5.10" speed="0.00"/>
                <vehicle id="F04_0" pos="20.42" speed="6.41"/>
            </lane>
            <lane id="L1314_1">
                <vehicle id="F04_1" pos="11.24" speed="3.78"/>
            </lane>
        </edge>
        <edge id="L1913">
            <lane id="L1913_0"/>
            <lane id="L1913_1">
                <vehicle id="F00_0" pos="25.54" speed="8.56"/>
            </lane>
            <lane id="L1913_2"/>
        </edge>
        <edge id="L2115">
            <lane id="L2115_0">
                <vehicle id="F075_0" pos="22.86" speed="6.95"/>
            </lane>
        </edge>
        <edge id="L2216">
            <lane id="L2216_0">
                <vehicle id="F08_0" pos="26.98" speed="8.86"/>
            </lane>
        </edge>
        <edge id="L2418">
            <lane id="L2418_0">
                <vehicle id="F11_0" pos="23.09" speed="7.05"/>
            </lane>
            <lane id="L2418_1"/>
            <lane id="L2418_2"/>
        </edge>
        <edge id="L2423">
            <lane id="L2423_0">
                <vehicle id="F05_0" pos="22.58" speed="6.86"/>
            </lane>
            <lane id="L2423_1"/>
        </edge>
    </timestep>
    <timestep time="5.00">
        <edge id="L0102">
            <lane id="L0102_0"/>
            <lane id="L0102_1">
                <vehicle id="F02_0" pos="34.43" speed="9.77"/>
            </lane>
        </edge>
        <edge id="L0107">
            <lane id="L0107_0"/>
            <lane id="L0107_1">
                <vehicle id="F01_0" pos="30.99" speed="9.25"/>
            </lane>
            <lane id="L0107_2"/>
        </edge>
        <edge id="L0208">
            <lane id="L0208_0">
                <vehicle id="F06_0" pos="33.95" speed="9.33"/>
            </lane>
        </edge>
        <edge id="L0309">
            <lane id="L0309_0">
                <vehicle id="F07_0" pos="34.31" speed="9.94"/>
            </lane>
        </edge>
        <edge id="L0511">
            <lane id="L0511_0">
                <vehicle id="F09_0" pos="35.55" speed="9.30"/>
            </lane>
        </edge>
        <edge id="L0612">
            <lane id="L0612_0">
                <vehicle id="F10_0" pos="36.04" speed="9.85"/>
            </lane>
            <lane id="L0612_1">
                <vehicle id="F13_0" pos="34.74" speed="9.17"/>
            </lane>
            <lane id="L0612_2"/>
        </edge>
        <edge id="L1211">
            <lane id="L1211_0"/>
            <lane id="L1211_1">
                <vehicle id="F03_0" pos="33.43" speed="9.57"/>
            </lane>
        </edge>
        <edge id="L1314">
            <lane id="L1314_0">
                <vehicle id="F04_3" pos="6.78" speed="1.68"/>
                <vehicle id="F04_0" pos="28.27" speed="7.85"/>
            </lane>
            <lane id="L1314_1">
                <vehicle id="F04_4" pos="5.10" speed="0.00"/>
                <vehicle id="F04_1" pos="17.30" speed="6.06"/>
            </lane>
        </edge>
        <edge id="L1913">
            <lane id="L1913_0"/>
            <lane id="L1913_1">
                <vehicle id="F00_0" pos="35.81" speed="10.27"/>
            </lane>
            <lane id="L1913_2"/>
        </edge>
        <edge id="L2115">
            <lane id="L2115_0">
                <vehicle id="F075_0" pos="32.21" speed="9.35"/>
            </lane>
        </edge>
        <edge id="L2216">
            <lane id="L2216_0">
                <vehicle id="F08_0" pos="37.80" speed="10.82"/>
            </lane>
        </edge>
        <edge id="L2418">
            <lane id="L2418_0">
                <vehicle id="F11_0" pos="32.03" speed="8.94"/>
            </lane>
            <lane id="L2418_1"/>
            <lane id="L2418_2"/>
        </edge>
        <edge id="L2423">
            <lane id="L2423_0">
                <vehicle id="F05_0" pos="31.98" speed="9.41"/>
            </lane>
            <lane id="L2423_1"/>
        </edge>
    </timestep>
    <timestep time="6.00">
        <edge id="L0102">
            <lane id="L0102_0"/>
            <lane id="L0102_1">
                <vehicle id="F02_0" pos="46.12" speed="11.69"/>
            </lane>
        </edge>
        <edge id="L0107">
            <lane id="L0107_0"/>
            <lane id="L0107_1">
                <vehicle id="F01_0" pos="42.68" speed="11.69"/>
            </lane>
            <lane id="L0107_2"/>
        </edge>
        <edge id="L0208">
            <lane id="L0208_0">
                <vehicle id="F06_0" pos="44.66" speed="10.71"/>
            </lane>
        </edge>
        <edge id="L0309">
            <lane id="L0309_0">
                <vehicle id="F07_0" pos="44.38" speed="10.07"/>
            </lane>
        </edge>
        <edge id="L0511">
            <lane id="L0511_0">
                <vehicle id="F09_0" pos="46.38" speed="10.83"/>
            </lane>
        </edge>
        <edge id="L0612">
            <lane id="L0612_0">
                <vehicle id="F10_0" pos="47.80" speed="11.76"/>
            </lane>
            <lane id="L0612_1">
                <vehicle id="F13_0" pos="45.37" speed="10.63"/>
            </lane>
            <lane id="L0612_2"/>
        </edge>
        <edge id="L1211">
            <lane id="L1211_0"/>
            <lane id="L1211_1">
                <vehicle id="F03_0" pos="45.52" speed="12.09"/>
            </lane>
        </edge>
        <edge id="L1314">
            <lane id="L1314_0">
                <vehicle id="F04_3" pos="9.90" speed="3.11"/>
                <vehicle id="F04_0" pos="37.46" speed="9.19"/>
            </lane>
            <lane id="L1314_1">
                <vehicle id="F04_4" pos="7.59" speed="2.49"/>
                <vehicle id="F04_1" pos="25.85" speed="8.55"/>
            </lane>
        </edge>
        <edge id="L1913">
            <lane id="L1913_0"/>
            <lane id="L1913_1">
                <vehicle id="F00_0" pos="48.12" speed="12.32"/>
            </lane>
            <lane id="L1913_2"/>
        </edge>
        <edge id="L2115">
            <lane id="L2115_0">
                <vehicle id="F075_0" pos="42.84" speed="10.62"/>
            </lane>
        </edge>
        <edge id="L2216">
            <lane id="L2216_0">
                <vehicle id="F08_0" pos="48.67" speed="10.87"/>
            </lane>
        </edge>
        <edge id="L2418">
            <lane id="L2418_0">
                <vehicle id="F11_0" pos="42.49" speed="10.46"/>
            </lane>
            <lane id="L2418_1"/>
            <lane id="L2418_2"/>
        </edge>
        <edge id="L2423">
            <lane id="L2423_0">
                <vehicle id="F05_0" pos="43.73" speed="11.74"/>
            </lane>
            <lane id="L2423_1"/>
        </edge>
    </timestep>
    <timestep time="7.00">
        <edge id="L0102">
            <lane id="L0102_0"/>
            <lane id="L0102_1">
                <vehicle id="F02_0" pos="59.99" speed="13.87"/>
            </lane>
        </edge>
        <edge id="L0107">
            <lane id="L0107_0"/>
            <lane id="L0107_1">
                <vehicle id="F01_0" pos="56.01" speed="13.34"/>
            </lane>
            <lane id="L0107_2">
                <vehicle id="F01_1" pos="5.10" speed="0.00"/>
            </lane>
        </edge>
        <edge id="L0208">
            <lane id="L0208_0">
                <vehicle id="F06_0" pos="54.74" speed="10.08"/>
            </lane>
        </edge>
        <edge id="L0309">
            <lane id="L0309_0">
                <vehicle id="F07_0" pos="55.37" speed="10.99"/>
            </lane>
        </edge>
        <edge id="L0511">
            <lane id="L0511_0">
                <vehicle id="F09_0" pos="56.82" speed="10.44"/>
            </lane>
        </edge>
        <edge id="L0612">
            <lane id="L0612_0">
                <vehicle id="F13_1" pos="5.10" speed="0.00"/>
                <vehicle id="F10_0" pos="61.02" speed="13.22"/>
            </lane>
            <lane id="L0612_1">
                <vehicle id="F13_0" pos="57.89" speed="12.52"/>
            </lane>
            <lane id="L0612_2"/>
        </edge>
        <edge id="L1211">
            <lane id="L1211_0"/>
            <lane id="L1211_1">
                <vehicle id="F03_0" pos="60.21" speed="14.69"/>
            </lane>
        </edge>
        <edge id="L1314">
            <lane id="L1314_0">
                <vehicle id="F04_2" pos="5.10" speed="0.00"/>
                <vehicle id="F04_3" pos="14.94" speed="5.04"/>
                <vehicle id="F04_0" pos="48.44" speed="10.99"/>
            </lane>
            <lane id="L1314_1">
                <vehicle id="F04_4" pos="11.42" speed="3.83"/>
                <vehicle id="F04_1" pos="36.22" speed="10.37"/>
            </lane>
        </edge>
        <edge id="L1913">
            <lane id="L1913_0"/>
            <lane id="L1913_1">
                <vehicle id="F00_0" pos="62.22" speed="14.09"/>
            </lane>
            <lane id="L1913_2"/>
        </edge>
        <edge id="L2115">
            <lane id="L2115_0">
                <vehicle id="F075_0" pos="54.00" speed="11.16"/>
            </lane>
        </edge>
        <edge id="L2216">
            <lane id="L2216_0">
                <vehicle id="F08_0" pos="59.70" speed="11.02"/>
            </lane>
        </edge>
        <edge id="L2418">
            <lane id="L2418_0">
                <vehicle id="F11_0" pos="54.26" speed="11.77"/>
            </lane>
            <lane id="L2418_1"/>
            <lane id="L2418_2"/>
        </edge>
        <edge id="L2423">
            <lane id="L2423_0">
                <vehicle id="F05_0" pos="56.96" speed="13.23"/>
            </lane>
            <lane id="L2423_1"/>
        </edge>
    </timestep>
    <timestep time="8.00">
        <edge id="L0102">
            <lane id="L0102_0"/>
            <lane id="L0102_1">
                <vehicle id="F02_0" pos="74.93" speed="14.94"/>
            </lane>
        </edge>
        <edge id="L0107">
            <lane id="L0107_0"/>
            <lane id="L0107_1">
                <vehicle id="F01_0" pos="71.27" speed="15.26"/>
            </lane>
            <lane id="L0107_2">
                <vehicle id="F01_1" pos="7.63" speed="2.53"/>
            </lane>
        </edge>
        <edge id="L0208">
            <lane id="L0208_0">
                <vehicle id="F06_0" pos="65.73" speed="10.98"/>
            </lane>
        </edge>
        <edge id="L0309">
            <lane id="L0309_0">
                <vehicle id="F07_0" pos="66.00" speed="10.63"/>
            </lane>
        </edge>
        <edge id="L0511">
            <lane id="L0511_0">
                <vehicle id="F09_0" pos="67.28" speed="10.46"/>
            </lane>
        </edge>
        <edge id="L0612">
            <lane id="L0612_0">
                <vehicle id="F13_1" pos="7.14" speed="2.04"/>
                <vehicle id="F10_0" pos="76.17" speed="15.15"/>
            </lane>
            <lane id="L0612_1">
                <vehicle id="F13_0" pos="69.19" speed="11.30"/>
            </lane>
            <lane id="L0612_2"/>
        </edge>
        <edge id="L1211">
            <lane id="L1211_0"/>
            <lane id="L1211_1">
                <vehicle id="F03_0" pos="74.80" speed="14.59"/>
            </lane>
        </edge>
        <edge id="L1314">
            <lane id="L1314_0">
                <vehicle id="F04_2" pos="7.01" speed="1.91"/>
                <vehicle id="F04_3" pos="22.31" speed="7.37"/>
                <vehicle id="F04_0" pos="61.00" speed="12.56"/>
            </lane>
            <lane id="L1314_1">
                <vehicle id="F04_6" pos="5.10" speed="0.00"/>
                <vehicle id="F04_4" pos="16.59" speed="5.17"/>
                <vehicle id="F04_1" pos="47.95" speed="11.73"/>
            </lane>
        </edge>
        <edge id="L1913">
            <lane id="L1913_0"/>
            <lane id="L1913_1">
                <vehicle id="F00_0" pos="77.93" speed="15.72"/>
            </lane>
            <lane id="L1913_2"/>
        </edge>
        <edge id="L2115">
            <lane id="L2115_0">
                <vehicle id="F075_0" pos="63.89" speed="9.89"/>
            </lane>
        </edge>
        <edge id="L2216">
            <lane id="L2216_0">
                <vehicle id="F08_0" pos="70.77" speed="11.07"/>
            </lane>
        </edge>
        <edge id="L2418">
            <lane id="L2418_0">
                <vehicle id="F11_0" pos="67.75" speed="13.49"/>
            </lane>
            <lane id="L2418_1"/>
            <lane id="L2418_2"/>
        </edge>
        <edge id="L2423">
            <lane id="L2423_0">
                <vehicle id="F05_0" pos="71.77" speed="14.81"/>
            </lane>
            <lane id="L2423_1"/>
        </edge>
    </timestep>
    <timestep time="9.00">
        <edge id="L0102">
            <lane id="L0102_0"/>
            <lane id="L0102_1">
                <vehicle id="F02_0" pos="89.37" speed="14.44"/>
            </lane>
        </edge>
        <edge id="L0107">
            <lane id="L0107_0"/>
            <lane id="L0107_1">
                <vehicle id="F01_0" pos="88.00" speed="16.73"/>
            </lane>
            <lane id="L0107_2">
                <vehicle id="F01_1" pos="11.56" speed="3.93"/>
            </lane>
        </edge>
        <edge id="L0208">
            <lane id="L0208_0">
                <vehicle id="F06_0" pos="76.40" speed="10.67"/>
            </lane>
        </edge>
        <edge id="L0309">
            <lane id="L0309_0">
                <vehicle id="F07_0" pos="76.25" speed="10.25"/>
            </lane>
        </edge>
        <edge id="L0511">
            <lane id="L0511_0">
                <vehicle id="F09_0" pos="78.03" speed="10.75"/>
            </lane>
        </edge>
        <edge id="L0612">
            <lane id="L0612_0">
                <vehicle id="F13_1" pos="7.14" speed="0.00"/>
                <vehicle id="F13_0" pos="79.41" speed="10.22"/>
                <vehicle id="F10_0" pos="92.68" speed="16.51"/>
            </lane>
            <lane id="L0612_1"/>
            <lane id="L0612_2"/>
        </edge>
        <edge id="L1211">
            <lane id="L1211_0"/>
            <lane id="L1211_1">
                <vehicle id="F03_0" pos="90.08" speed="15.28"/>
            </lane>
        </edge>
        <edge id="L1314">
            <lane id="L1314_0">
                <vehicle id="F04_2" pos="10.47" speed="3.46"/>
                <vehicle id="F04_3" pos="32.13" speed="9.83"/>
                <vehicle id="F04_0" pos="75.05" speed="14.04"/>
            </lane>
            <lane id="L1314_1">
                <vehicle id="F04_6" pos="6.48" speed="1.38"/>
                <vehicle id="F04_4" pos="24.19" speed="7.60"/>
                <vehicle id="F04_1" pos="61.48" speed="13.53"/>
            </lane>
        </edge>
        <edge id="L1913">
            <lane id="L1913_0"/>
            <lane id="L1913_1">
                <vehicle id="F00_0" pos="95.86" speed="17.93"/>
            </lane>
            <lane id="L1913_2"/>
        </edge>
        <edge id="L2115">
            <lane id="L2115_0">
                <vehicle id="F075_0" pos="73.87" speed="9.98"/>
            </lane>
        </edge>
        <edge id="L2216">
            <lane id="L2216_0">
                <vehicle id="F08_0" pos="80.82" speed="10.05"/>
            </lane>
        </edge>
        <edge id="L2418">
            <lane id="L2418_0">
                <vehicle id="F11_0" pos="83.76" speed="16.01"/>
            </lane>
            <lane id="L2418_1"/>
            <lane id="L2418_2"/>
        </edge>
        <edge id="L2423">
            <lane id="L2423_0">
                <vehicle id="F05_0" pos="87.20" speed="15.42"/>
            </lane>
            <lane id="L2423_1"/>
        </edge>
    </timestep>
    <timestep time="10.00">
        <edge id="L0102">
            <lane id="L0102_0">
                <vehicle id="F02_1" pos="5.10" speed="0.00"/>
            </lane>
            <lane id="L0102_1">
                <vehicle id="F02_0" pos="104.71" speed="15.35"/>
            </lane>
        </edge>
        <edge id="L0107">
            <lane id="L0107_0"/>
            <lane id="L0107_1">
                <vehicle id="F01_0" pos="106.70" speed="18.70"/>
            </lane>
            <lane id="L0107_2">
                <vehicle id="F01_1" pos="16.89" speed="5.33"/>
            </lane>
        </edge>
        <edge id="L0208">
            <lane id="L0208_0">
                <vehicle id="F06_1" pos="5.10" speed="0.00"/>
                <vehicle id="F06_0" pos="86.53" speed="10.13"/>
            </lane>
        </edge>
        <edge id="L0309">
            <lane id="L0309_0">
                <vehicle id="F07_1" pos="5.10" speed="0.00"/>
                <vehicle id="F07_0" pos="86.65" speed="10.41"/>
            </lane>
        </edge>
        <edge id="L0511">
            <lane id="L0511_0">
                <vehicle id="F09_1" pos="5.10" speed="0.00"/>
                <vehicle id="F09_0" pos="88.53" speed="10.50"/>
            </lane>
        </edge>
        <edge id="L0612">
            <lane id="L0612_0">
                <vehicle id="F13_1" pos="9.17" speed="2.02"/>
                <vehicle id="F13_0" pos="91.47" speed="12.06"/>
                <vehicle id="F10_0" pos="111.39" speed="18.71"/>
            </lane>
            <lane id="L0612_1"/>
            <lane id="L0612_2">