<?xml version="1.0"?>

<!-- generated on Wed Apr 17 14:34:31 2013 by SUMO sumo Version 0.16.0
<?xml version="1.0" encoding="UTF-8"?>

<configuration xmlns:xsi="http://www.w3.org/2001/XMLSchema-instance" xsi:noNamespaceSchemaLocation="http://sumo.sf.net/xsd/sumoConfiguration.xsd">

    <input>
        <net-file value="../grid6_4.net.xml"/>
        <route-files value="grid6_4.rou.xml"/>
    </input>

    <output>
        <netstate-dump value="netstate6_4.xml"/>
    </output>

    <time>
        <begin value="0"/>
        <end value="200"/>
    </time>

    <processing>
        <time-to-teleport value="-1"/>
    </processing>

</configuration>
-->

<sumo-netstate>
    <timestep time="0.00">
        <edge id="L0102">
            <lane id="L0102_0">
                <vehicle id="F02_0" pos="5.10" speed="0.00"/>
            </lane>
            <lane id="L0102_1"/>
        </edge>
        <edge id="L0107">
            <lane id="L0107_0"/>
            <lane id="L0107_1">
                <vehicle id="F01_0" pos="5.10" speed="0.00"/>
            </lane>
            <lane id="L0107_2"/>
        </edge>
        <edge id="L0208">
            <lane id="L0208_0">
                <vehicle id="F06_0" pos="5.10" speed="0.00"/>
            </lane>
        </edge>
        <edge id="L0309">
            <lane id="L0309_0">
                <vehicle id="F07_0" pos="5.10" speed="0.00"/>
            </lane>
        </edge>
        <edge id="L0511">
            <lane id="L0511_0">
                <vehicle id="F09_0" pos="5.10" speed="0.00"/>
            </lane>
        </edge>
        <edge id="L0612">
            <lane id="L0612_0"/>
            <lane id="L0612_1">
                <vehicle id="F10_0" pos="5.10" speed="0.00"/>
            </lane>
            <lane id="L0612_2"/>
        </edge>
        <edge id="L1211">
            <lane id="L1211_0"/>
            <lane id="L1211_1">
                <vehicle id="F03_0" pos="5.10" speed="0.00"/>
            </lane>
        </edge>
        <edge id="L1314">
            <lane id="L1314_0">
                <vehicle id="F04_0" pos="5.10" speed="0.00"/>
            </lane>
            <lane id="L1314_1"/>
        </edge>
        <edge id="L1913">
            <lane id="L1913_0"/>
            <lane id="L1913_1">
                <vehicle id="F00_0" pos="5.10" speed="0.00"/>
            </lane>
            <lane id="L1913_2"/>
        </edge>
        <edge id="L2115">
            <lane id="L2115_0">
                <vehicle id="F075_0" pos="5.10" speed="0.00"/>
            </lane>
        </edge>
        <edge id="L2216">
            <lane id="L2216_0">
                <vehicle id="F08_0" pos="5.10" speed="0.00"/>
            </lane>
        </edge>
        <edge id="L2418">
            <lane id="L2418_0"/>
            <lane id="L2418_1"/>
            <lane id="L2418_2">
                <vehicle id="F11_0" pos="5.10" speed="0.00"/>
            </lane>
        </edge>
        <edge id="L2423">
            <lane id="L2423_0"/>
            <lane id="L2423_1">
                <vehicle id="F05_0" pos="5.10" speed="0.00"/>
            </lane>
        </edge>
    </timestep>
    <timestep time="1.00">
        <edge id="L0102">
            <lane id="L0102_0">
                <vehicle id="F02_0" pos="7.69" speed="2.59"/>
            </lane>
            <lane id="L0102_1"/>
        </edge>
        <edge id="L0107">
            <lane id="L0107_0"/>
            <lane id="L0107_1">
                <vehicle id="F01_0" pos="6.74" speed="1.64"/>
            </lane>
            <lane id="L0107_2"/>
        </edge>
        <edge id="L0208">
            <lane id="L0208_0">
                <vehicle id="F06_0" pos="7.24" speed="2.14"/>
            </lane>
        </edge>
        <edge id="L0309">
            <lane id="L0309_0">
                <vehicle id="F07_0" pos="6.51" speed="1.41"/>
            </lane>
        </edge>
        <edge id="L0511">
            <lane id="L0511_0">
                <vehicle id="F09_0" pos="6.69" speed="1.59"/>
            </lane>
        </edge>
        <edge id="L0612">
            <lane id="L0612_0"/>
            <lane id="L0612_1">
                <vehicle id="F10_0" pos="6.51" speed="1.41"/>
            </lane>
            <lane id="L0612_2">
                <vehicle id="F13_0" pos="5.10" speed="0.00"/>
            </lane>
        </edge>
        <edge id="L1211">
            <lane id="L1211_0"/>
            <lane id="L1211_1">
                <vehicle id="F03_0" pos="7.64" speed="2.54"/>
            </lane>
        </edge>
        <edge id="L1314">
            <lane id="L1314_0">
                <vehicle id="F04_0" pos="6.85" speed="1.75"/>
            </lane>
            <lane id="L1314_1"/>
        </edge>
        <edge id="L1913">
            <lane id="L1913_0"/>
            <lane id="L1913_1">
                <vehicle id="F00_0" pos="6.54" speed="1.44"/>
            </lane>
            <lane id="L1913_2"/>
        </edge>
        <edge id="L2115">
            <lane id="L2115_0">
                <vehicle id="F075_0" pos="6.74" speed="1.64"/>
            </lane>
        </edge>
        <edge id="L2216">
            <lane id="L2216_0">
                <vehicle id="F08_0" pos="6.66" speed="1.56"/>
            </lane>
        </edge>
        <edge id="L2418">
            <lane id="L2418_0"/>
            <lane id="L2418_1"/>
            <lane id="L2418_2">
                <vehicle id="F11_0" pos="6.41" speed="1.31"/>
            </lane>
        </edge>
        <edge id="L2423">
            <lane id="L2423_0"/>
            <lane id="L2423_1">
                <vehicle id="F05_0" pos="7.39" speed="2.29"/>
            </lane>
        </edge>
    </timestep>
    <timestep time="2.00">
        <edge id="L0102">
            <lane id="L0102_0">
                <vehicle id="F02_0" pos="12.56" speed="4.87"/>
            </lane>
            <lane id="L0102_1"/>
        </edge>
        <edge id="L0107">
            <lane id="L0107_0"/>
            <lane id="L0107_1">
                <vehicle id="F01_0" pos="9.77" speed="3.04"/>
            </lane>
            <lane id="L0107_2"/>
        </edge>
        <edge id="L0208">
            <lane id="L0208_0">
                <vehicle id="F06_0" pos="10.81" speed="3.57"/>
            </lane>
        </edge>
        <edge id="L0309">
            <lane id="L0309_0">
                <vehicle id="F07_0" pos="9.85" speed="3.35"/>
            </lane>
        </edge>
        <edge id="L0511">
            <lane id="L0511_0">
                <vehicle id="F09_0" pos="10.36" speed="3.66"/>
            </lane>
        </edge>
        <edge id="L0612">
            <lane id="L0612_0"/>
            <lane id="L0612_1">
                <vehicle id="F10_0" pos="9.67" speed="3.16"/>
            </lane>
            <lane id="L0612_2">
                <vehicle id="F13_0" pos="6.95" speed="1.85"/>
            </lane>
        </edge>
        <edge id="L1211">
            <lane id="L1211_0"/>
            <lane id="L1211_1">
                <vehicle id="F03_0" pos="11.68" speed="4.04"/>
            </lane>
        </edge>
        <edge id="L1314">
            <lane id="L1314_0">
                <vehicle id="F04_0" pos="10.51" speed="3.66"/>
            </lane>
            <lane id="L1314_1"/>
        </edge>
        <edge id="L1913">
            <lane id="L1913_0"/>
            <lane id="L1913_1">
                <vehicle id="F00_0" pos="10.34" speed="3.80"/>
            </lane>
            <lane id="L1913_2"/>
        </edge>
        <edge id="L2115">
            <lane id="L2115_0">
                <vehicle id="F075_0" pos="10.58" speed="3.84"/>
            </lane>
        </edge>
        <edge id="L2216">
            <lane id="L2216_0">
                <vehicle id="F08_0" pos="9.65" speed="2.99"/>
            </lane>
        </edge>
        <edge id="L2418">
            <lane id="L2418_0"/>
            <lane id="L2418_1"/>
            <lane id="L2418_2">
                <vehicle id="F11_0" pos="9.80" speed="3.39"/>
            </lane>
        </edge>
        <edge id="L2423">
            <lane id="L2423_0"/>
            <lane id="L2423_1">
                <vehicle id="F05_0" pos="11.66" speed="4.28"/>
            </lane>
        </edge>
    </timestep>
    <timestep time="3.00">
        <edge id="L0102">
            <lane id="L0102_0">
                <vehicle id="F02_0" pos="20.01" speed="7.45"/>
            </lane>
            <lane id="L0102_1"/>
        </edge>
        <edge id="L0107">
            <lane id="L0107_0"/>
            <lane id="L0107_1">
                <vehicle id="F01_0" pos="14.62" speed="4.85"/>
            </lane>
            <lane id="L0107_2"/>
        </edge>
        <edge id="L0208">
            <lane id="L0208_0">
                <vehicle id="F06_0" pos="16.42" speed="5.61"/>
            </lane>
        </edge>
        <edge id="L0309">
            <lane id="L0309_0">
                <vehicle id="F07_0" pos="14.55" speed="4.70"/>
            </lane>
        </edge>
        <edge id="L0511">
            <lane id="L0511_0">
                <vehicle id="F09_0" pos="15.46" speed="5.11"/>
            </lane>
        </edge>
        <edge id="L0612">
            <lane id="L0612_0"/>
            <lane id="L0612_1">
                <vehicle id="F10_0" pos="14.41" speed="4.74"/>
            </lane>
            <lane id="L0612_2">
                <vehicle id="F13_0" pos="10.16" speed="3.21"/>
            </lane>
        </edge>
        <edge id="L1211">
            <lane id="L1211_0"/>
            <lane id="L1211_1">
                <vehicle id="F03_0" pos="17.14" speed="5.46"/>
            </lane>
        </edge>
        <edge id="L1314">
            <lane id="L1314_0">
                <vehicle id="F04_0" pos="15.50" speed="4.99"/>
            </lane>
            <lane id="L1314_1">
                <vehicle id="F04_1" pos="5.10" speed="0.00"/>
            </lane>
        </edge>
        <edge id="L1913">
            <lane id="L1913_0"/>
            <lane id="L1913_1">
                <vehicle id="F00_1" pos="5.10" speed="0.00"/>
                <vehicle id="F00_0" pos="16.31" speed="5.97"/>
            </lane>
            <lane id="L1913_2"/>
        </edge>
        <edge id="L2115">
            <lane id="L2115_0">
                <vehicle id="F075_0" pos="16.61" speed="6.03"/>
            </lane>
        </edge>
        <edge id="L2216">
            <lane id="L2216_0">
                <vehicle id="F08_0" pos="15.14" speed="5.49"/>
            </lane>
        </edge>
        <edge id="L2418">
            <lane id="L2418_0"/>
            <lane id="L2418_1"/>
            <lane id="L2418_2">
                <vehicle id="F11_0" pos="15.05" speed="5.25"/>
            </lane>
        </edge>
        <edge id="L2423">
            <lane id="L2423_0"/>
            <lane id="L2423_1">
                <vehicle id="F05_0" pos="17.64" speed="5.98"/>
            </lane>
        </edge>
    </timestep>
    <timestep time="4.00">
        <edge id="L0102">
            <lane id="L0102_0">
                <vehicle id="F02_0" pos="28.90" speed="8.89"/>
            </lane>
            <lane id="L0102_1"/>
        </edge>
        <edge id="L0107">
            <lane id="L0107_0">
                <vehicle id="F01_1" pos="5.10" speed="0.00"/>
            </lane>
            <lane id="L0107_1">
                <vehicle id="F01_0" pos="21.16" speed="6.53"/>
            </lane>
            <lane id="L0107_2"/>
        </edge>
        <edge id="L0208">
            <lane id="L0208_0">
                <vehicle id="F06_0" pos="24.35" speed="7.93"/>
            </lane>
        </edge>
        <edge id="L0309">
            <lane id="L0309_0">
                <vehicle id="F07_0" pos="20.87" speed="6.31"/>
            </lane>
        </edge>
        <edge id="L0511">
            <lane id="L0511_0">
                <vehicle id="F09_0" pos="22.00" speed="6.54"/>
            </lane>
        </edge>
        <edge id="L0612">
            <lane id="L0612_0"/>
            <lane id="L0612_1">
                <vehicle id="F10_0" pos="20.86" speed="6.45"/>
            </lane>
            <lane id="L0612_2">
                <vehicle id="F13_1" pos="5.10" speed="0.00"/>
                <vehicle id="F13_0" pos="14.86" speed="4.70"/>
            </lane>
        </edge>
        <edge id="L1211">
            <lane id="L1211_0"/>
            <lane id="L1211_1">
                <vehicle id="F03_0" pos="24.50" speed="7.36"/>
            </lane>
        </edge>
        <edge id="L1314">
            <lane id="L1314_0">
                <vehicle id="F04_0" pos="23.04" speed="7.54"/>
            </lane>
            <lane id="L1314_1">
                <vehicle id="F04_1" pos="6.41" speed="1.31"/>
            </lane>
        </edge>
        <edge id="L1913">
            <lane id="L1913_0"/>
            <lane id="L1913_1">
                <vehicle id="F00_1" pos="7.62" speed="2.52"/>
                <vehicle id="F00_0" pos="24.56" speed="8.25"/>
            </lane>
            <lane id="L1913_2"/>
        </edge>
        <edge id="L2115">
            <lane id="L2115_0">
                <vehicle id="F075_0" pos="24.46" speed="7.85"/>
            </lane>
        </edge>
        <edge id="L2216">
            <lane id="L2216_0">
                <vehicle id="F08_0" pos="22.89" speed="7.75"/>
            </lane>
        </edge>
        <edge id="L2418">
            <lane id="L2418_0"/>
            <lane id="L2418_1"/>
            <lane id="L2418_2">
                <vehicle id="F11_0" pos="22.82" speed="7.78"/>
            </lane>
        </edge>
        <edge id="L2423">
            <lane id="L2423_0"/>
            <lane id="L2423_1">
                <vehicle id="F05_0" pos="26.03" speed="8.39"/>
            </lane>
        </edge>
    </timestep>
    <timestep time="5.00">
        <edge id="L0102">
            <lane id="L0102_0">
                <vehicle id="F02_0" pos="40.31" speed="11.41"/>
            </lane>
            <lane id="L0102_1"/>
        </edge>
        <edge id="L0107">
            <lane id="L0107_0">
                <vehicle id="F01_1" pos="6.64" speed="1.54"/>
            </lane>
            <lane id="L0107_1">
                <vehicle id="F01_0" pos="29.02" speed="7.87"/>
            </lane>
            <lane id="L0107_2"/>
        </edge>
        <edge id="L0208">
            <lane id="L0208_0">
                <vehicle id="F06_0" pos="33.73" speed="9.38"/>
            </lane>
        </edge>
        <edge id="L0309">
            <lane id="L0309_0">
                <vehicle id="F07_0" pos="29.09" speed="8.22"/>
            </lane>
        </edge>
        <edge id="L0511">
            <lane id="L0511_0">
                <vehicle id="F09_0" pos="30.98" speed="8.98"/>
            </lane>
        </edge>
        <edge id="L0612">
            <lane id="L0612_0"/>
            <lane id="L0612_1">
                <vehicle id="F10_0" pos="28.73" speed="7.88"/>
            </lane>
            <lane id="L0612_2">
                <vehicle id="F13_1" pos="7.19" speed="2.09"/>
                <vehicle id="F13_0" pos="21.49" speed="6.63"/>
            </lane>
        </edge>
        <edge id="L1211">
            <lane id="L1211_0"/>
            <lane id="L1211_1">
                <vehicle id="F03_0" pos="33.91" speed="9.41"/>
            </lane>
        </edge>
        <edge id="L1314">
            <lane id="L1314_0">
                <vehicle id="F04_0" pos="32.09" speed="9.05"/>
            </lane>
            <lane id="L1314_1">
                <vehicle id="F04_1" pos="10.13" speed="3.72"/>
            </lane>
        </edge>
        <edge id="L1913">
            <lane id="L1913_0"/>
            <lane id="L1913_1">
                <vehicle id="F00_1" pos="12.63" speed="5.01"/>
                <vehicle id="F00_0" pos="35.15" speed="10.59"/>
            </lane>
            <lane id="L1913_2"/>
        </edge>
        <edge id="L2115">
            <lane id="L2115_0">
                <vehicle id="F075_0" pos="34.23" speed="9.77"/>
            </lane>
        </edge>
        <edge id="L2216">
            <lane id="L2216_0">
                <vehicle id="F08_0" pos="32.77" speed="9.88"/>
            </lane>
        </edge>
        <edge id="L2418">
            <lane id="L2418_0"/>
            <lane id="L2418_1"/>
            <lane id="L2418_2">
                <vehicle id="F11_0" pos="33.09" speed="10.27"/>
            </lane>
        </edge>
        <edge id="L2423">
            <lane id="L2423_0"/>
            <lane id="L2423_1">
                <vehicle id="F05_0" pos="36.87" speed="10.84"/>
            </lane>
        </edge>
    </timestep>
    <timestep time="6.00">
        <edge id="L0102">
            <lane id="L0102_0">
                <vehicle id="F02_0" pos="54.32" speed="14.01"/>
            </lane>
            <lane id="L0102_1"/>
        </edge>
        <edge id="L0107">
            <lane id="L0107_0">
                <vehicle id="F01_1" pos="10.43" speed="3.79"/>
            </lane>
            <lane id="L0107_1">
                <vehicle id="F01_0" pos="38.69" speed="9.67"/>
            </lane>
            <lane id="L0107_2"/>
        </edge>
        <edge id="L0208">
            <lane id="L0208_0">
                <vehicle id="F06_0" pos="44.21" speed="10.48"/>
            </lane>
        </edge>
        <edge id="L0309">
            <lane id="L0309_0">
                <vehicle id="F07_0" pos="38.78" speed="9.69"/>
            </lane>
        </edge>
        <edge id="L0511">
            <lane id="L0511_0">
                <vehicle id="F09_0" pos="41.21" speed="10.23"/>
            </lane>
        </edge>
        <edge id="L0612">
            <lane id="L0612_0"/>
            <lane id="L0612_1">
                <vehicle id="F10_0" pos="38.54" speed="9.81"/>
            </lane>
            <lane id="L0612_2">
                <vehicle id="F13_1" pos="11.57" speed="4.38"/>
                <vehicle id="F13_0" pos="30.43" speed="8.94"/>
            </lane>
        </edge>
        <edge id="L1211">
            <lane id="L1211_0"/>
            <lane id="L1211_1">
                <vehicle id="F03_0" pos="45.09" speed="11.18"/>
            </lane>
        </edge>
        <edge id="L1314">
            <lane id="L1314_0">
                <vehicle id="F04_0" pos="42.45" speed="10.36"/>
            </lane>
            <lane id="L1314_1">
                <vehicle id="F04_2" pos="5.10" speed="0.00"/>
                <vehicle id="F04_1" pos="15.90" speed="5.76"/>
            </lane>
        </edge>
        <edge id="L1913">
            <lane id="L1913_0"/>
            <lane id="L1913_1">
                <vehicle id="F00_1" pos="19.46" speed="6.83"/>
                <vehicle id="F00_0" pos="47.22" speed="12.07"/>
            </lane>
            <lane id="L1913_2"/>
        </edge>
        <edge id="L2115">
            <lane id="L2115_0">
                <vehicle id="F075_0" pos="44.98" speed="10.75"/>
            </lane>
        </edge>
        <edge id="L2216">
            <lane id="L2216_0">
                <vehicle id="F08_0" pos="42.86" speed="10.08"/>
            </lane>
        </edge>
        <edge id="L2418">
            <lane id="L2418_0"/>
            <lane id="L2418_1"/>
            <lane id="L2418_2">
                <vehicle id="F11_0" pos="44.70" speed="11.60"/>
            </lane>
        </edge>
        <edge id="L2423">
            <lane id="L2423_0"/>
            <lane id="L2423_1">
                <vehicle id="F05_0" pos="49.10" speed="12.23"/>
            </lane>
        </edge>
    </timestep>
    <timestep time="7.00">
        <edge id="L0102">
            <lane id="L0102_0">
                <vehicle id="F02_0" pos="69.28" speed="14.96"/>
            </lane>
            <lane id="L0102_1"/>
        </edge>
        <edge id="L0107">
            <lane id="L0107_0">
                <vehicle id="F01_1" pos="16.08" speed="5.65"/>
            </lane>
            <lane id="L0107_1">
                <vehicle id="F01_0" pos="49.98" speed="11.29"/>
            </lane>
            <lane id="L0107_2"/>
        </edge>
        <edge id="L0208">
            <lane id="L0208_0">
                <vehicle id="F06_0" pos="55.12" speed="10.91"/>
            </lane>
        </edge>
        <edge id="L0309">
            <lane id="L0309_0">
                <vehicle id="F07_0" pos="48.93" speed="10.16"/>
            </lane>
        </edge>
        <edge id="L0511">
            <lane id="L0511_0">
                <vehicle id="F09_0" pos="51.33" speed="10.12"/>
            </lane>
        </edge>
        <edge id="L0612">
            <lane id="L0612_0"/>
            <lane id="L0612_1">
                <vehicle id="F10_0" pos="50.51" speed="11.97"/>
            </lane>
            <lane id="L0612_2">
                <vehicle id="F13_1" pos="17.56" speed="5.99"/>
                <vehicle id="F13_0" pos="35.30" speed="4.87"/>
            </lane>
        </edge>
        <edge id="L1211">
            <lane id="L1211_0"/>
            <lane id="L1211_1">
                <vehicle id="F03_0" pos="58.03" speed="12.95"/>
            </lane>
        </edge>
        <edge id="L1314">
            <lane id="L1314_0">
                <vehicle id="F04_0" pos="54.17" speed="11.73"/>
            </lane>
            <lane id="L1314_1">
                <vehicle id="F04_2" pos="7.68" speed="2.58"/>
                <vehicle id="F04_1" pos="24.10" speed="8.21"/>
            </lane>
        </edge>
        <edge id="L1913">
            <lane id="L1913_0"/>
            <lane id="L1913_1">
                <vehicle id="F00_1" pos="28.81" speed="9.36"/>
                <vehicle id="F00_0" pos="60.63" speed="13.41"/>
            </lane>
            <lane id="L1913_2">
                <vehicle id="F00_2" pos="5.10" speed="0.00"/>
            </lane>
        </edge>
        <edge id="L2115">
            <lane id="L2115_0">
                <vehicle id="F075_0" pos="55.61" speed="10.63"/>
            </lane>
        </edge>
        <edge id="L2216">
            <lane id="L2216_0">
                <vehicle id="F08_0" pos="53.48" speed="10.62"/>
            </lane>
        </edge>
        <edge id="L2418">
            <lane id="L2418_0"/>
            <lane id="L2418_1"/>
            <lane id="L2418_2">
                <vehicle id="F11_0" pos="58.72" speed="14.02"/>
            </lane>
        </edge>
        <edge id="L2423">
            <lane id="L2423_0"/>
            <lane id="L2423_1">
                <vehicle id="F05_0" pos="63.87" speed="14.77"/>
            </lane>
        </edge>
    </timestep>
    <timestep time="8.00">
        <edge id="L0102">
            <lane id="L0102_0">
                <vehicle id="F02_0" pos="84.85" speed="15.56"/>
            </lane>
            <lane id="L0102_1"/>
        </edge>
        <edge id="L0107">
            <lane id="L0107_0">
                <vehicle id="F01_1" pos="23.62" speed="7.54"/>
            </lane>
            <lane id="L0107_1">
                <vehicle id="F01_0" pos="63.64" speed="13.66"/>
            </lane>
            <lane id="L0107_2">
                <vehicle id="F01_2" pos="5.10" speed="0.00"/>
            </lane>
        </edge>
        <edge id="L0208">
            <lane id="L0208_0">
                <vehicle id="F06_0" pos="65.91" speed="10.80"/>
            </lane>
        </edge>
        <edge id="L0309">
            <lane id="L0309_0">
                <vehicle id="F07_0" pos="59.06" speed="10.13"/>
            </lane>
        </edge>
        <edge id="L0511">
            <lane id="L0511_0">
                <vehicle id="F09_0" pos="62.37" speed="11.04"/>
            </lane>
        </edge>
        <edge id="L0612">
            <lane id="L0612_0"/>
            <lane id="L0612_1">
                <vehicle id="F13_2" pos="5.10" speed="0.00"/>
                <vehicle id="F10_0" pos="64.28" speed="13.77"/>
            </lane>
            <lane id="L0612_2">
                <vehicle id="F13_1" pos="24.31" speed="6.75"/>
                <vehicle id="F13_0" pos="41.48" speed="6.18"/>
            </lane>
        </edge>
        <edge id="L1211">
            <lane id="L1211_0"/>
            <lane id="L1211_1">
                <vehicle id="F03_0" pos="73.41" speed="15.38"/>
            </lane>
        </edge>
        <edge id="L1314">
            <lane id="L1314_0">
                <vehicle id="F04_0" pos="67.28" speed="13.11"/>
            </lane>
            <lane id="L1314_1">
                <vehicle id="F04_3" pos="5.10" speed="0.00"/>
                <vehicle id="F04_2" pos="12.67" speed="4.99"/>
                <vehicle id="F04_1" pos="34.36" speed="10.25"/>
            </lane>
        </edge>
        <edge id="L1913">
            <lane id="L1913_0"/>
            <lane id="L1913_1">
                <vehicle id="F00_1" pos="40.62" speed="11.80"/>
                <vehicle id="F00_0" pos="75.44" speed="14.80"/>
            </lane>
            <lane id="L1913_2">
                <vehicle id="F00_2" pos="7.02" speed="1.92"/>
            </lane>
        </edge>
        <edge id="L2115">
            <lane id="L2115_0">
                <vehicle id="F075_0" pos="65.67" speed="10.06"/>
            </lane>
        </edge>
        <edge id="L2216">
            <lane id="L2216_0">
                <vehicle id="F08_0" pos="64.29" speed="10.81"/>
            </lane>
        </edge>
        <edge id="L2418">
            <lane id="L2418_0"/>
            <lane id="L2418_1"/>
            <lane id="L2418_2">
                <vehicle id="F11_0" pos="75.01" speed="16.29"/>
            </lane>
        </edge>
        <edge id="L2423">
            <lane id="L2423_0"/>
            <lane id="L2423_1">
                <vehicle id="F05_0" pos="79.41" speed="15.54"/>
            </lane>
        </edge>
    </timestep>
    <timestep time="9.00">
        <edge id="L0102">
            <lane id="L0102_0">
                <vehicle id="F02_0" pos="100.19" speed="15.35"/>
            </lane>
            <lane id="L0102_1"/>
        </edge>
        <edge id="L0107">
            <lane id="L0107_0">
                <vehicle id="F01_1" pos="32.83" speed="9.21"/>
            </lane>
            <lane id="L0107_1">
                <vehicle id="F01_0" pos="78.63" speed="14.98"/>
            </lane>
            <lane id="L0107_2">
                <vehicle id="F01_2" pos="6.49" speed="1.39"/>
            </lane>
        </edge>
        <edge id="L0208">
            <lane id="L0208_0">
                <vehicle id="F06_0" pos="76.88" speed="10.97"/>
            </lane>
        </edge>
        <edge id="L0309">
            <lane id="L0309_0">
                <vehicle id="F07_0" pos="69.66" speed="10.60"/>
            </lane>
        </edge>
        <edge id="L0511">
            <lane id="L0511_0">
                <vehicle id="F09_0" pos="72.79" speed="10.42"/>
            </lane>
        </edge>
        <edge id="L0612">
            <lane id="L0612_0"/>
            <lane id="L0612_1">
                <vehicle id="F13_2" pos="6.69" speed="1.59"/>
                <vehicle id="F13_0" pos="49.72" speed="8.24"/>
                <vehicle id="F10_0" pos="80.10" speed="15.82"/>
            </lane>
            <lane id="L0612_2">
                <vehicle id="F13_1" pos="31.09" speed="6.78"/>
            </lane>
        </edge>
        <edge id="L1211">
            <lane id="L1211_0"/>
            <lane id="L1211_1">
                <vehicle id="F03_0" pos="88.68" speed="15.27"/>
            </lane>
        </edge>
        <edge id="L1314">
            <lane id="L1314_0">
                <vehicle id="F04_0" pos="82.68" speed="15.40"/>
            </lane>
            <lane id="L1314_1">
                <vehicle id="F04_3" pos="5.10" speed="0.00"/>
                <vehicle id="F04_2" pos="19.05" speed="6.38"/>
                <vehicle id="F04_1" pos="46.08" speed="11.72"/>
            </lane>
        </edge>
        <edge id="L1913">
            <lane id="L1913_0"/>
            <lane id="L1913_1">
                <vehicle id="F00_1" pos="53.77" speed="13.15"/>
                <vehicle id="F00_0" pos="92.73" speed="17.30"/>
            </lane>
            <lane id="L1913_2">
                <vehicle id="F00_2" pos="11.03" speed="4.01"/>
            </lane>
        </edge>
        <edge id="L2115">
            <lane id="L2115_0">
                <vehicle id="F075_0" pos="76.45" speed="10.78"/>
            </lane>
        </edge>
        <edge id="L2216">
            <lane id="L2216_0">
                <vehicle id="F08_0" pos="74.84" speed="10.55"/>
            </lane>
        </edge>
        <edge id="L2418">
            <lane id="L2418_0"/>
            <lane id="L2418_1"/>
            <lane id="L2418_2">
                <vehicle id="F11_0" pos="93.16" speed="18.16"/>
            </lane>
        </edge>
        <edge id="L2423">
            <lane id="L2423_0"/>
            <lane id="L2423_1">
                <vehicle id="F05_0" pos="93.86" speed="14.45"/>
            </lane>
        </edge>
    </timestep>
    <timestep time="10.00">
        <edge id="L0102">
            <lane id="L0102_0">
                <vehicle id="F02_0" pos="115.49" speed="15.30"/>
            </lane>
            <lane id="L0102_1">
                <vehicle id="F02_1" pos="5.10" speed="0.00"/>
            </lane>
        </edge>
        <edge id="L0107">
            <lane id="L0107_0">
                <vehicle id="F01_1" pos="43.87" speed="11.04"/>
            </lane>
            <lane id="L0107_1">
                <vehicle id="F01_0" pos="95.12" speed="16.49"/>
            </lane>
            <lane id="L0107_2">
                <vehicle id="F01_2" pos="10.17" speed="3.69"/>
            </lane>
        </edge>
        <edge id="L0208">
            <lane id="L0208_0">
                <vehicle id="F06_0" pos="87.82" speed="10.94"/>
            </lane>
        </edge>
        <edge id="L0309">
            <lane id="L0309_0">
                <vehicle id="F07_1" pos="5.10" speed="0.00"/>