<?xml version="1.0"?>

<!-- generated on Thu Apr 25 11:51:38 2013 by SUMO sumo Version 0.16.0
<?xml version="1.0" encoding="UTF-8"?>

<configuration xmlns:xsi="http://www.w3.org/2001/XMLSchema-instance" xsi:noNamespaceSchemaLocation="http://sumo.sf.net/xsd/sumoConfiguration.xsd">

    <input>
        <net-file value="../grid6_4.net.xml"/>
        <route-files value="grid6_4.rou.xml"/>
    </input>

    <output>
        <netstate-dump value="netstate6_4.xml"/>
    </output>

    <time>
        <begin value="0"/>
        <end value="200"/>
    </time>

    <processing>
        <time-to-teleport value="-1"/>
    </processing>

</configuration>
-->

<sumo-netstate>
    <timestep time="0.00">
        <edge id="L0102">
            <lane id="L0102_0">
                <vehicle id="F02_0" pos="5.10" speed="0.00"/>
            </lane>
            <lane id="L0102_1"/>
        </edge>
        <edge id="L0107">
            <lane id="L0107_0">
                <vehicle id="F01_0" pos="5.10" speed="0.00"/>
            </lane>
            <lane id="L0107_1"/>
            <lane id="L0107_2"/>
        </edge>
        <edge id="L0208">
            <lane id="L0208_0">
                <vehicle id="F06_0" pos="5.10" speed="0.00"/>
            </lane>
        </edge>
        <edge id="L0309">
            <lane id="L0309_0">
                <vehicle id="F07_0" pos="5.10" speed="0.00"/>
            </lane>
        </edge>
        <edge id="L0511">
            <lane id="L0511_0">
                <vehicle id="F09_0" pos="5.10" speed="0.00"/>
            </lane>
        </edge>
        <edge id="L0612">
            <lane id="L0612_0">
                <vehicle id="F10_0" pos="5.10" speed="0.00"/>
            </lane>
            <lane id="L0612_1"/>
            <lane id="L0612_2"/>
        </edge>
        <edge id="L1211">
            <lane id="L1211_0">
                <vehicle id="F03_0" pos="5.10" speed="0.00"/>
            </lane>
            <lane id="L1211_1"/>
        </edge>
        <edge id="L1314">
            <lane id="L1314_0">
                <vehicle id="F0825_0" pos="5.10" speed="0.00"/>
            </lane>
            <lane id="L1314_1"/>
        </edge>
        <edge id="L1913">
            <lane id="L1913_0">
                <vehicle id="F00_0" pos="5.10" speed="0.00"/>
            </lane>
            <lane id="L1913_1"/>
            <lane id="L1913_2"/>
        </edge>
        <edge id="L2115">
            <lane id="L2115_0">
                <vehicle id="F075_0" pos="5.10" speed="0.00"/>
            </lane>
        </edge>
        <edge id="L2216">
            <lane id="L2216_0">
                <vehicle id="F0785_0" pos="5.10" speed="0.00"/>
            </lane>
        </edge>
        <edge id="L2418">
            <lane id="L2418_0">
                <vehicle id="F11_0" pos="5.10" speed="0.00"/>
            </lane>
            <lane id="L2418_1"/>
            <lane id="L2418_2"/>
        </edge>
        <edge id="L2423">
            <lane id="L2423_0">
                <vehicle id="F05_0" pos="5.10" speed="0.00"/>
            </lane>
            <lane id="L2423_1"/>
        </edge>
    </timestep>
    <timestep time="1.00">
        <edge id="L0102">
            <lane id="L0102_0">
                <vehicle id="F02_0" pos="7.38" speed="2.28"/>
            </lane>
            <lane id="L0102_1"/>
        </edge>
        <edge id="L0107">
            <lane id="L0107_0">
                <vehicle id="F01_0" pos="6.73" speed="1.63"/>
            </lane>
            <lane id="L0107_1"/>
            <lane id="L0107_2"/>
        </edge>
        <edge id="L0208">
            <lane id="L0208_0">
                <vehicle id="F06_0" pos="6.99" speed="1.89"/>
            </lane>
        </edge>
        <edge id="L0309">
            <lane id="L0309_0">
                <vehicle id="F07_0" pos="6.73" speed="1.63"/>
            </lane>
        </edge>
        <edge id="L0511">
            <lane id="L0511_0">
                <vehicle id="F09_0" pos="7.69" speed="2.59"/>
            </lane>
        </edge>
        <edge id="L0612">
            <lane id="L0612_0">
                <vehicle id="F10_0" pos="7.64" speed="2.54"/>
            </lane>
            <lane id="L0612_1"/>
            <lane id="L0612_2"/>
        </edge>
        <edge id="L1211">
            <lane id="L1211_0">
                <vehicle id="F03_0" pos="6.93" speed="1.83"/>
            </lane>
            <lane id="L1211_1"/>
        </edge>
        <edge id="L1314">
            <lane id="L1314_0">
                <vehicle id="F0825_0" pos="7.06" speed="1.96"/>
            </lane>
            <lane id="L1314_1"/>
        </edge>
        <edge id="L1913">
            <lane id="L1913_0">
                <vehicle id="F00_0" pos="7.64" speed="2.54"/>
            </lane>
            <lane id="L1913_1"/>
            <lane id="L1913_2"/>
        </edge>
        <edge id="L2115">
            <lane id="L2115_0">
                <vehicle id="F075_0" pos="6.83" speed="1.73"/>
            </lane>
        </edge>
        <edge id="L2216">
            <lane id="L2216_0">
                <vehicle id="F0785_0" pos="7.09" speed="1.99"/>
            </lane>
        </edge>
        <edge id="L2418">
            <lane id="L2418_0">
                <vehicle id="F11_0" pos="6.77" speed="1.67"/>
            </lane>
            <lane id="L2418_1"/>
            <lane id="L2418_2"/>
        </edge>
        <edge id="L2423">
            <lane id="L2423_0">
                <vehicle id="F05_0" pos="6.54" speed="1.44"/>
            </lane>
            <lane id="L2423_1"/>
        </edge>
    </timestep>
    <timestep time="2.00">
        <edge id="L0102">
            <lane id="L0102_0">
                <vehicle id="F02_0" pos="12.20" speed="4.82"/>
            </lane>
            <lane id="L0102_1"/>
        </edge>
        <edge id="L0107">
            <lane id="L0107_0">
                <vehicle id="F01_0" pos="10.08" speed="3.35"/>
            </lane>
            <lane id="L0107_1"/>
            <lane id="L0107_2"/>
        </edge>
        <edge id="L0208">
            <lane id="L0208_0">
                <vehicle id="F06_0" pos="10.82" speed="3.82"/>
            </lane>
        </edge>
        <edge id="L0309">
            <lane id="L0309_0">
                <vehicle id="F07_0" pos="10.56" speed="3.83"/>
            </lane>
        </edge>
        <edge id="L0511">
            <lane id="L0511_0">
                <vehicle id="F09_0" pos="12.06" speed="4.37"/>
            </lane>
        </edge>
        <edge id="L0612">
            <lane id="L0612_0">
                <vehicle id="F10_0" pos="12.37" speed="4.72"/>
            </lane>
            <lane id="L0612_1"/>
            <lane id="L0612_2"/>
        </edge>
        <edge id="L1211">
            <lane id="L1211_0">
                <vehicle id="F03_0" pos="10.23" speed="3.29"/>
            </lane>
            <lane id="L1211_1"/>
        </edge>
        <edge id="L1314">
            <lane id="L1314_0">
                <vehicle id="F0825_0" pos="11.54" speed="4.48"/>
            </lane>
            <lane id="L1314_1"/>
        </edge>
        <edge id="L1913">
            <lane id="L1913_0">
                <vehicle id="F00_0" pos="12.44" speed="4.80"/>
            </lane>
            <lane id="L1913_1"/>
            <lane id="L1913_2"/>
        </edge>
        <edge id="L2115">
            <lane id="L2115_0">
                <vehicle id="F075_0" pos="9.93" speed="3.10"/>
            </lane>
        </edge>
        <edge id="L2216">
            <lane id="L2216_0">
                <vehicle id="F0785_0" pos="10.62" speed="3.52"/>
            </lane>
        </edge>
        <edge id="L2418">
            <lane id="L2418_0">
                <vehicle id="F11_0" pos="10.31" speed="3.54"/>
            </lane>
            <lane id="L2418_1"/>
            <lane id="L2418_2"/>
        </edge>
        <edge id="L2423">
            <lane id="L2423_0">
                <vehicle id="F05_0" pos="10.00" speed="3.45"/>
            </lane>
            <lane id="L2423_1"/>
        </edge>
    </timestep>
    <timestep time="3.00">
        <edge id="L0102">
            <lane id="L0102_0">
                <vehicle id="F02_0" pos="19.41" speed="7.21"/>
            </lane>
            <lane id="L0102_1"/>
        </edge>
        <edge id="L0107">
            <lane id="L0107_0">
                <vehicle id="F01_0" pos="15.03" speed="4.95"/>
            </lane>
            <lane id="L0107_1"/>
            <lane id="L0107_2"/>
        </edge>
        <edge id="L0208">
            <lane id="L0208_0">
                <vehicle id="F06_0" pos="16.00" speed="5.18"/>
            </lane>
        </edge>
        <edge id="L0309">
            <lane id="L0309_0">
                <vehicle id="F07_0" pos="16.96" speed="6.39"/>
            </lane>
        </edge>
        <edge id="L0511">
            <lane id="L0511_0">
                <vehicle id="F09_0" pos="18.14" speed="6.08"/>
            </lane>
        </edge>
        <edge id="L0612">
            <lane id="L0612_0">
                <vehicle id="F10_0" pos="19.30" speed="6.93"/>
            </lane>
            <lane id="L0612_1"/>
            <lane id="L0612_2"/>
        </edge>
        <edge id="L1211">
            <lane id="L1211_0">
                <vehicle id="F03_0" pos="16.08" speed="5.85"/>
            </lane>
            <lane id="L1211_1"/>
        </edge>
        <edge id="L1314">
            <lane id="L1314_0">
                <vehicle id="F0825_0" pos="18.32" speed="6.78"/>
            </lane>
            <lane id="L1314_1"/>
        </edge>
        <edge id="L1913">
            <lane id="L1913_0">
                <vehicle id="F041_0" pos="5.10" speed="0.00"/>
                <vehicle id="F00_0" pos="19.13" speed="6.69"/>
            </lane>
            <lane id="L1913_1"/>
            <lane id="L1913_2"/>
        </edge>
        <edge id="L2115">
            <lane id="L2115_0">
                <vehicle id="F0775_0" pos="5.10" speed="0.00"/>
                <vehicle id="F075_0" pos="15.20" speed="5.27"/>
            </lane>
        </edge>
        <edge id="L2216">
            <lane id="L2216_0">
                <vehicle id="F085_0" pos="5.10" speed="0.00"/>
                <vehicle id="F0785_0" pos="16.57" speed="5.95"/>
            </lane>
        </edge>
        <edge id="L2418">
            <lane id="L2418_0">
                <vehicle id="F11_0" pos="15.93" speed="5.62"/>
            </lane>
            <lane id="L2418_1"/>
            <lane id="L2418_2"/>
        </edge>
        <edge id="L2423">
            <lane id="L2423_0">
                <vehicle id="F05_0" pos="14.90" speed="4.90"/>
            </lane>
            <lane id="L2423_1"/>
        </edge>
    </timestep>
    <timestep time="4.00">
        <edge id="L0102">
            <lane id="L0102_0">
                <vehicle id="F02_0" pos="28.16" speed="8.76"/>
            </lane>
            <lane id="L0102_1"/>
        </edge>
        <edge id="L0107">
            <lane id="L0107_0">
                <vehicle id="F01_0" pos="22.27" speed="7.24"/>
            </lane>
            <lane id="L0107_1"/>
            <lane id="L0107_2"/>
        </edge>
        <edge id="L0208">
            <lane id="L0208_0">
                <vehicle id="F06_0" pos="23.66" speed="7.66"/>
            </lane>
        </edge>
        <edge id="L0309">
            <lane id="L0309_0">
                <vehicle id="F07_0" pos="25.08" speed="8.12"/>
            </lane>
        </edge>
        <edge id="L0511">
            <lane id="L0511_0">
                <vehicle id="F09_0" pos="25.89" speed="7.75"/>
            </lane>
        </edge>
        <edge id="L0612">
            <lane id="L0612_0">
                <vehicle id="F10_0" pos="28.09" speed="8.79"/>
            </lane>
            <lane id="L0612_1"/>
            <lane id="L0612_2"/>
        </edge>
        <edge id="L1211">
            <lane id="L1211_0">
                <vehicle id="F03_0" pos="24.31" speed="8.23"/>
            </lane>
            <lane id="L1211_1"/>
        </edge>
        <edge id="L1314">
            <lane id="L1314_0">
                <vehicle id="F0825_0" pos="27.40" speed="9.08"/>
            </lane>
            <lane id="L1314_1"/>
        </edge>
        <edge id="L1913">
            <lane id="L1913_0">
                <vehicle id="F041_0" pos="6.45" speed="1.35"/>
                <vehicle id="F00_0" pos="28.07" speed="8.95"/>
            </lane>
            <lane id="L1913_1"/>
            <lane id="L1913_2"/>
        </edge>
        <edge id="L2115">
            <lane id="L2115_0">
                <vehicle id="F0775_0" pos="6.92" speed="1.82"/>
                <vehicle id="F075_0" pos="22.18" speed="6.97"/>
            </lane>
        </edge>
        <edge id="L2216">
            <lane id="L2216_0">
                <vehicle id="F085_0" pos="6.48" speed="1.38"/>
                <vehicle id="F0785_0" pos="23.88" speed="7.31"/>
            </lane>
        </edge>
        <edge id="L2418">
            <lane id="L2418_0">
                <vehicle id="F11_0" pos="23.62" speed="7.69"/>
            </lane>
            <lane id="L2418_1"/>
            <lane id="L2418_2"/>
        </edge>
        <edge id="L2423">
            <lane id="L2423_0">
                <vehicle id="F05_0" pos="22.23" speed="7.34"/>
            </lane>
            <lane id="L2423_1"/>
        </edge>
    </timestep>
    <timestep time="5.00">
        <edge id="L0102">
            <lane id="L0102_0">
                <vehicle id="F02_0" pos="39.48" speed="11.32"/>
            </lane>
            <lane id="L0102_1"/>
        </edge>
        <edge id="L0107">
            <lane id="L0107_0">
                <vehicle id="F01_0" pos="31.91" speed="9.64"/>
            </lane>
            <lane id="L0107_1"/>
            <lane id="L0107_2"/>
        </edge>
        <edge id="L0208">
            <lane id="L0208_0">
                <vehicle id="F06_0" pos="33.56" speed="9.90"/>
            </lane>
        </edge>
        <edge id="L0309">
            <lane id="L0309_0">
                <vehicle id="F07_0" pos="35.10" speed="10.01"/>
            </lane>
        </edge>
        <edge id="L0511">
            <lane id="L0511_0">
                <vehicle id="F09_0" pos="35.03" speed="9.14"/>
            </lane>
        </edge>
        <edge id="L0612">
            <lane id="L0612_0">
                <vehicle id="F10_0" pos="38.65" speed="10.56"/>
            </lane>
            <lane id="L0612_1"/>
            <lane id="L0612_2"/>
        </edge>
        <edge id="L1211">
            <lane id="L1211_0">
                <vehicle id="F03_0" pos="34.91" speed="10.60"/>
            </lane>
            <lane id="L1211_1"/>
        </edge>
        <edge id="L1314">
            <lane id="L1314_0">
                <vehicle id="F0825_0" pos="37.85" speed="10.44"/>
            </lane>
            <lane id="L1314_1"/>
        </edge>
        <edge id="L1913">
            <lane id="L1913_0">
                <vehicle id="F041_0" pos="9.64" speed="3.19"/>
                <vehicle id="F00_0" pos="39.40" speed="11.33"/>
            </lane>
            <lane id="L1913_1">
                <vehicle id="F00_1" pos="5.10" speed="0.00"/>
            </lane>
            <lane id="L1913_2"/>
        </edge>
        <edge id="L2115">
            <lane id="L2115_0">
                <vehicle id="F0775_0" pos="11.26" speed="4.34"/>
                <vehicle id="F075_0" pos="31.52" speed="9.34"/>
            </lane>
        </edge>
        <edge id="L2216">
            <lane id="L2216_0">
                <vehicle id="F085_0" pos="9.18" speed="2.69"/>
                <vehicle id="F0785_0" pos="33.38" speed="9.50"/>
            </lane>
        </edge>
        <edge id="L2418">
            <lane id="L2418_0">
                <vehicle id="F11_0" pos="33.27" speed="9.65"/>
            </lane>
            <lane id="L2418_1">
                <vehicle id="F11_1" pos="5.10" speed="0.00"/>
            </lane>
            <lane id="L2418_2"/>
        </edge>
        <edge id="L2423">
            <lane id="L2423_0">
                <vehicle id="F05_0" pos="31.77" speed="9.54"/>
            </lane>
            <lane id="L2423_1"/>
        </edge>
    </timestep>
    <timestep time="6.00">
        <edge id="L0102">
            <lane id="L0102_0">
                <vehicle id="F02_0" pos="53.13" speed="13.64"/>
            </lane>
            <lane id="L0102_1"/>
        </edge>
        <edge id="L0107">
            <lane id="L0107_0">
                <vehicle id="F01_0" pos="43.77" speed="11.86"/>
            </lane>
            <lane id="L0107_1"/>
            <lane id="L0107_2"/>
        </edge>
        <edge id="L0208">
            <lane id="L0208_0">
                <vehicle id="F06_0" pos="43.86" speed="10.30"/>
            </lane>
        </edge>
        <edge id="L0309">
            <lane id="L0309_0">
                <vehicle id="F07_0" pos="45.73" speed="10.63"/>
            </lane>
        </edge>
        <edge id="L0511">
            <lane id="L0511_0">
                <vehicle id="F09_0" pos="45.41" speed="10.38"/>
            </lane>
        </edge>
        <edge id="L0612">
            <lane id="L0612_0">
                <vehicle id="F10_0" pos="51.34" speed="12.70"/>
            </lane>
            <lane id="L0612_1"/>
            <lane id="L0612_2"/>
        </edge>
        <edge id="L1211">
            <lane id="L1211_0">
                <vehicle id="F03_0" pos="47.17" speed="12.26"/>
            </lane>
            <lane id="L1211_1"/>
        </edge>
        <edge id="L1314">
            <lane id="L1314_0">
                <vehicle id="F0825_0" pos="50.79" speed="12.94"/>
            </lane>
            <lane id="L1314_1"/>
        </edge>
        <edge id="L1913">
            <lane id="L1913_0">
                <vehicle id="F042_0" pos="5.10" speed="0.00"/>
                <vehicle id="F041_0" pos="15.20" speed="5.56"/>
                <vehicle id="F00_0" pos="53.27" speed="13.87"/>
            </lane>
            <lane id="L1913_1">
                <vehicle id="F00_1" pos="7.59" speed="2.49"/>
            </lane>
            <lane id="L1913_2"/>
        </edge>
        <edge id="L2115">
            <lane id="L2115_0">
                <vehicle id="F0775_0" pos="17.69" speed="6.43"/>
                <vehicle id="F075_0" pos="42.03" speed="10.51"/>
            </lane>
        </edge>
        <edge id="L2216">
            <lane id="L2216_0">
                <vehicle id="F08_0" pos="5.10" speed="0.00"/>
                <vehicle id="F085_0" pos="13.40" speed="4.22"/>
                <vehicle id="F0785_0" pos="43.79" speed="10.42"/>
            </lane>
        </edge>
        <edge id="L2418">
            <lane id="L2418_0">
                <vehicle id="F11_0" pos="45.25" speed="11.98"/>
            </lane>
            <lane id="L2418_1">
                <vehicle id="F11_1" pos="7.26" speed="2.16"/>
            </lane>
            <lane id="L2418_2"/>
        </edge>
        <edge id="L2423">
            <lane id="L2423_0">
                <vehicle id="F05_0" pos="43.17" speed="11.40"/>
            </lane>
            <lane id="L2423_1"/>
        </edge>
    </timestep>
    <timestep time="7.00">
        <edge id="L0102">
            <lane id="L0102_0">
                <vehicle id="F02_0" pos="67.85" speed="14.73"/>
            </lane>
            <lane id="L0102_1"/>
        </edge>
        <edge id="L0107">
            <lane id="L0107_0">
                <vehicle id="F01_0" pos="57.68" speed="13.91"/>
            </lane>
            <lane id="L0107_1"/>
            <lane id="L0107_2"/>
        </edge>
        <edge id="L0208">
            <lane id="L0208_0">
                <vehicle id="F06_0" pos="54.45" speed="10.59"/>
            </lane>
        </edge>
        <edge id="L0309">
            <lane id="L0309_0">
                <vehicle id="F07_0" pos="55.77" speed="10.04"/>
            </lane>
        </edge>
        <edge id="L0511">
            <lane id="L0511_0">
                <vehicle id="F09_0" pos="55.84" speed="10.43"/>
            </lane>
        </edge>
        <edge id="L0612">
            <lane id="L0612_0">
                <vehicle id="F10_0" pos="66.00" speed="14.66"/>
            </lane>
            <lane id="L0612_1"/>
            <lane id="L0612_2"/>
        </edge>
        <edge id="L1211">
            <lane id="L1211_0">
                <vehicle id="F03_0" pos="60.82" speed="13.66"/>
            </lane>
            <lane id="L1211_1"/>
        </edge>
        <edge id="L1314">
            <lane id="L1314_0">
                <vehicle id="F0825_0" pos="65.51" speed="14.73"/>
            </lane>
            <lane id="L1314_1"/>
        </edge>
        <edge id="L1913">
            <lane id="L1913_0">
                <vehicle id="F042_0" pos="7.31" speed="2.21"/>
                <vehicle id="F041_0" pos="23.22" speed="8.02"/>
                <vehicle id="F00_0" pos="68.59" speed="15.33"/>
            </lane>
            <lane id="L1913_1">
                <vehicle id="F00_1" pos="12.20" speed="4.61"/>
            </lane>
            <lane id="L1913_2"/>
        </edge>
        <edge id="L2115">
            <lane id="L2115_0">
                <vehicle id="F0775_0" pos="25.46" speed="7.77"/>
                <vehicle id="F075_0" pos="52.83" speed="10.79"/>
            </lane>
        </edge>
        <edge id="L2216">
            <lane id="L2216_0">
                <vehicle id="F08_0" pos="5.69" speed="0.59"/>
                <vehicle id="F085_0" pos="19.78" speed="6.38"/>
                <vehicle id="F0785_0" pos="54.07" speed="10.27"/>
            </lane>
        </edge>
        <edge id="L2418">
            <lane id="L2418_0">
                <vehicle id="F11_0" pos="59.79" speed="14.55"/>
            </lane>
            <lane id="L2418_1">
                <vehicle id="F11_1" pos="11.48" speed="4.22"/>
            </lane>
            <lane id="L2418_2"/>
        </edge>
        <edge id="L2423">
            <lane id="L2423_0">
                <vehicle id="F05_0" pos="55.90" speed="12.73"/>
            </lane>
            <lane id="L2423_1"/>
        </edge>
    </timestep>
    <timestep time="8.00">
        <edge id="L0102">
            <lane id="L0102_0">
                <vehicle id="F02_0" pos="82.88" speed="15.03"/>
            </lane>
            <lane id="L0102_1"/>
        </edge>
        <edge id="L0107">
            <lane id="L0107_0">
                <vehicle id="F01_0" pos="73.71" speed="16.03"/>
            </lane>
            <lane id="L0107_1">
                <vehicle id="F01_1" pos="5.10" speed="0.00"/>
            </lane>
            <lane id="L0107_2"/>
        </edge>
        <edge id="L0208">
            <lane id="L0208_0">
                <vehicle id="F06_0" pos="65.57" speed="11.12"/>
            </lane>
        </edge>
        <edge id="L0309">
            <lane id="L0309_0">
                <vehicle id="F07_0" pos="66.44" speed="10.67"/>
            </lane>
        </edge>
        <edge id="L0511">
            <lane id="L0511_0">
                <vehicle id="F09_0" pos="66.14" speed="10.30"/>
            </lane>
        </edge>
        <edge id="L0612">
            <lane id="L0612_0">
                <vehicle id="F10_0" pos="82.11" speed="16.11"/>
            </lane>
            <lane id="L0612_1"/>
            <lane id="L0612_2"/>
        </edge>
        <edge id="L1211">
            <lane id="L1211_0">
                <vehicle id="F03_0" pos="76.29" speed="15.47"/>
            </lane>
            <lane id="L1211_1"/>
        </edge>
        <edge id="L1314">
            <lane id="L1314_0">
                <vehicle id="F0825_0" pos="80.24" speed="14.72"/>
            </lane>
            <lane id="L1314_1"/>
        </edge>
        <edge id="L1913">
            <lane id="L1913_0">
                <vehicle id="F042_0" pos="11.75" speed="4.44"/>
                <vehicle id="F041_0" pos="32.91" speed="9.70"/>
                <vehicle id="F00_0" pos="86.36" speed="17.77"/>
            </lane>
            <lane id="L1913_1">
                <vehicle id="F00_1" pos="18.81" speed="6.61"/>
            </lane>
            <lane id="L1913_2"/>
        </edge>
        <edge id="L2115">
            <lane id="L2115_0">
                <vehicle id="F0775_0" pos="34.56" speed="9.10"/>
                <vehicle id="F075_0" pos="62.91" speed="10.08"/>
            </lane>
        </edge>
        <edge id="L2216">
            <lane id="L2216_0">
                <vehicle id="F08_0" pos="8.68" speed="2.99"/>
                <vehicle id="F085_0" pos="27.58" speed="7.80"/>
                <vehicle id="F0785_0" pos="64.80" speed="10.73"/>
            </lane>
        </edge>
        <edge id="L2418">
            <lane id="L2418_0">
                <vehicle id="F11_0" pos="75.92" speed="16.13"/>
            </lane>
            <lane id="L2418_1">
                <vehicle id="F11_1" pos="18.16" speed="6.68"/>
            </lane>
            <lane id="L2418_2"/>
        </edge>
        <edge id="L2423">
            <lane id="L2423_0">
                <vehicle id="F05_0" pos="70.37" speed="14.47"/>
            </lane>
            <lane id="L2423_1">
                <vehicle id="F05_1" pos="5.10" speed="0.00"/>
            </lane>
        </edge>
    </timestep>
    <timestep time="9.00">
        <edge id="L0102">
            <lane id="L0102_0">
                <vehicle id="F02_0" pos="97.82" speed="14.94"/>
            </lane>
            <lane id="L0102_1"/>
        </edge>
        <edge id="L0107">
            <lane id="L0107_0">
                <vehicle id="F01_0" pos="91.11" speed="17.40"/>
            </lane>
            <lane id="L0107_1">
                <vehicle id="F01_1" pos="7.14" speed="2.04"/>
            </lane>
            <lane id="L0107_2"/>
        </edge>
        <edge id="L0208">
            <lane id="L0208_0">
                <vehicle id="F06_0" pos="76.73" speed="11.16"/>
            </lane>
        </edge>
        <edge id="L0309">
            <lane id="L0309_0">
                <vehicle id="F07_0" pos="76.35" speed="9.90"/>
            </lane>
        </edge>
        <edge id="L0511">
            <lane id="L0511_0">
                <vehicle id="F09_0" pos="76.17" speed="10.03"/>
            </lane>
        </edge>
        <edge id="L0612">
            <lane id="L0612_0">
                <vehicle id="F10_0" pos="99.75" speed="17.64"/>
            </lane>
            <lane id="L0612_1"/>
            <lane id="L0612_2"/>
        </edge>
        <edge id="L1211">
            <lane id="L1211_0">
                <vehicle id="F03_0" pos="91.11" speed="14.82"/>
            </lane>
            <lane id="L1211_1"/>
        </edge>
        <edge id="L1314">
            <lane id="L1314_0">
                <vehicle id="F0825_0" pos="94.77" speed="14.54"/>
            </lane>
            <lane id="L1314_1"/>
        </edge>
        <edge id="L1913">
            <lane id="L1913_0">
                <vehicle id="F04_0" pos="5.10" speed="0.00"/>
                <vehicle id="F042_0" pos="18.02" speed="6.27"/>
                <vehicle id="F041_0" pos="44.46" speed="11.55"/>
                <vehicle id="F00_0" pos="106.35" speed="19.99"/>
            </lane>
            <lane id="L1913_1">
                <vehicle id="F00_1" pos="27.66" speed="8.85"/>
            </lane>
            <lane id="L1913_2"/>
        </edge>
        <edge id="L2115">
            <lane id="L2115_0">
                <vehicle id="F0775_0" pos="45.11" speed="10.55"/>
                <vehicle id="F075_0" pos="72.91" speed="10.01"/>
            </lane>
        </edge>
        <edge id="L2216">
            <lane id="L2216_0">
                <vehicle id="F08_0" pos="14.05" speed="5.37"/>
                <vehicle id="F085_0" pos="37.53" speed="9.95"/>
                <vehicle id="F0785_0" pos="74.94" speed="10.14"/>
            </lane>
        </edge>
        <edge id="L2418">
            <lane id="L2418_0">
                <vehicle id="F11_0" pos="93.77" speed="17.85"/>
            </lane>
            <lane id="L2418_1">
                <vehicle id="F11_1" pos="26.68" speed="8.52"/>
            </lane>
            <lane id="L2418_2"/>
        </edge>
        <edge id="L2423">
            <lane id="L2423_0">
                <vehicle id="F05_0" pos="85.53" speed="15.16"/>
            </lane>
            <lane id="L2423_1">
                <vehicle id="F05_1" pos="6.84" speed="1.74"/>
            </lane>
        </edge>
    </timestep>
    <timestep time="10.00">
        <edge id="L0102">
            <lane id="L0102_0">
                <vehicle id="F02_0" pos="112.83" speed="15.02"/>
            </lane>
            <lane id="L0102_1">
                <vehicle id="F02_1" pos="5.10" speed="0.00"/>
            </lane>
        </edge>
        <edge id="L0107">
            <lane id="L0107_0">
                <vehicle id="F01_0" pos="109.81" speed="18.70"/>
            </lane>
            <lane id="L0107_1">
                <vehicle id="F01_1" pos="11.34" speed="4.20"/>
            </lane>
            <lane id="L0107_2"/>
        </edge>
        <edge id="L0208">
            <lane id="L0208_0">
                <vehicle id="F06_0" pos="86.70" speed="9.96"/>
            </lane>
        </edge>
        <edge id="L0309">
            <lane id="L0309_0">
                <vehicle id="F07_0" pos="86.51" speed="10.16"/>
            </lane>
        </edge>
        <edge id="L0511">
            <lane id="L0511_0">
                <vehicle id="F09_0" pos="86.75" speed="10.58"/>
            </lane>
        </edge>
        <edge id="L0612">
            <lane id="L0612_0">
                <vehicle id="F10_0" pos="119.36" speed="19.61"/>
            </lane>
            <lane id="L0612_1"/>
            <lane id="L0612_2"/>
        </edge>
        <edge id="L1211">
            <lane id="L1211_0">