<?xml version="1.0"?>

<!-- generated on Wed Apr 17 17:54:10 2013 by SUMO sumo Version 0.16.0
<?xml version="1.0" encoding="UTF-8"?>

<configuration xmlns:xsi="http://www.w3.org/2001/XMLSchema-instance" xsi:noNamespaceSchemaLocation="http://sumo.sf.net/xsd/sumoConfiguration.xsd">

    <input>
        <net-file value="../grid6_4.net.xml"/>
        <route-files value="grid6_4.rou.xml"/>
    </input>

    <output>
        <netstate-dump value="netstate6_4.xml"/>
    </output>

    <time>
        <begin value="0"/>
        <end value="200"/>
    </time>

    <processing>
        <time-to-teleport value="-1"/>
    </processing>

</configuration>
-->

<sumo-netstate>
    <timestep time="0.00">
        <edge id="L0102">
            <lane id="L0102_0">
                <vehicle id="F02_0" pos="5.10" speed="0.00"/>
            </lane>
            <lane id="L0102_1"/>
        </edge>
        <edge id="L0107">
            <lane id="L0107_0">
                <vehicle id="F01_0" pos="5.10" speed="0.00"/>
            </lane>
            <lane id="L0107_1"/>
            <lane id="L0107_2"/>
        </edge>
        <edge id="L0208">
            <lane id="L0208_0">
                <vehicle id="F06_0" pos="5.10" speed="0.00"/>
            </lane>
        </edge>
        <edge id="L0309">
            <lane id="L0309_0">
                <vehicle id="F07_0" pos="5.10" speed="0.00"/>
            </lane>
        </edge>
        <edge id="L0511">
            <lane id="L0511_0">
                <vehicle id="F09_0" pos="5.10" speed="0.00"/>
            </lane>
        </edge>
        <edge id="L0612">
            <lane id="L0612_0">
                <vehicle id="F10_0" pos="5.10" speed="0.00"/>
            </lane>
            <lane id="L0612_1"/>
            <lane id="L0612_2"/>
        </edge>
        <edge id="L1211">
            <lane id="L1211_0">
                <vehicle id="F03_0" pos="5.10" speed="0.00"/>
            </lane>
            <lane id="L1211_1"/>
        </edge>
        <edge id="L1314">
            <lane id="L1314_0">
                <vehicle id="F04_0" pos="5.10" speed="0.00"/>
            </lane>
            <lane id="L1314_1"/>
        </edge>
        <edge id="L1812">
            <lane id="L1812_0">
                <vehicle id="F11_0" pos="5.10" speed="0.00"/>
            </lane>
            <lane id="L1812_1"/>
            <lane id="L1812_2"/>
        </edge>
        <edge id="L1913">
            <lane id="L1913_0">
                <vehicle id="F00_0" pos="5.10" speed="0.00"/>
            </lane>
            <lane id="L1913_1"/>
            <lane id="L1913_2"/>
        </edge>
        <edge id="L2115">
            <lane id="L2115_0">
                <vehicle id="F075_0" pos="5.10" speed="0.00"/>
            </lane>
        </edge>
        <edge id="L2216">
            <lane id="L2216_0">
                <vehicle id="F08_0" pos="5.10" speed="0.00"/>
            </lane>
        </edge>
        <edge id="L2423">
            <lane id="L2423_0">
                <vehicle id="F05_0" pos="5.10" speed="0.00"/>
            </lane>
            <lane id="L2423_1"/>
        </edge>
    </timestep>
    <timestep time="1.00">
        <edge id="L0102">
            <lane id="L0102_0">
                <vehicle id="F02_0" pos="7.38" speed="2.28"/>
            </lane>
            <lane id="L0102_1"/>
        </edge>
        <edge id="L0107">
            <lane id="L0107_0">
                <vehicle id="F01_0" pos="6.73" speed="1.63"/>
            </lane>
            <lane id="L0107_1"/>
            <lane id="L0107_2"/>
        </edge>
        <edge id="L0208">
            <lane id="L0208_0">
                <vehicle id="F06_0" pos="6.99" speed="1.89"/>
            </lane>
        </edge>
        <edge id="L0309">
            <lane id="L0309_0">
                <vehicle id="F07_0" pos="6.73" speed="1.63"/>
            </lane>
        </edge>
        <edge id="L0511">
            <lane id="L0511_0">
                <vehicle id="F09_0" pos="7.69" speed="2.59"/>
            </lane>
        </edge>
        <edge id="L0612">
            <lane id="L0612_0">
                <vehicle id="F10_0" pos="7.64" speed="2.54"/>
            </lane>
            <lane id="L0612_1"/>
            <lane id="L0612_2"/>
        </edge>
        <edge id="L1211">
            <lane id="L1211_0">
                <vehicle id="F03_0" pos="6.93" speed="1.83"/>
            </lane>
            <lane id="L1211_1"/>
        </edge>
        <edge id="L1314">
            <lane id="L1314_0">
                <vehicle id="F04_0" pos="7.06" speed="1.96"/>
            </lane>
            <lane id="L1314_1"/>
        </edge>
        <edge id="L1812">
            <lane id="L1812_0">
                <vehicle id="F11_0" pos="7.64" speed="2.54"/>
            </lane>
            <lane id="L1812_1"/>
            <lane id="L1812_2"/>
        </edge>
        <edge id="L1913">
            <lane id="L1913_0">
                <vehicle id="F00_0" pos="6.77" speed="1.67"/>
            </lane>
            <lane id="L1913_1"/>
            <lane id="L1913_2"/>
        </edge>
        <edge id="L2115">
            <lane id="L2115_0">
                <vehicle id="F075_0" pos="6.83" speed="1.73"/>
            </lane>
        </edge>
        <edge id="L2216">
            <lane id="L2216_0">
                <vehicle id="F08_0" pos="7.09" speed="1.99"/>
            </lane>
        </edge>
        <edge id="L2423">
            <lane id="L2423_0">
                <vehicle id="F05_0" pos="6.54" speed="1.44"/>
            </lane>
            <lane id="L2423_1"/>
        </edge>
    </timestep>
    <timestep time="2.00">
        <edge id="L0102">
            <lane id="L0102_0">
                <vehicle id="F02_0" pos="12.20" speed="4.82"/>
            </lane>
            <lane id="L0102_1"/>
        </edge>
        <edge id="L0107">
            <lane id="L0107_0">
                <vehicle id="F01_0" pos="10.08" speed="3.35"/>
            </lane>
            <lane id="L0107_1"/>
            <lane id="L0107_2"/>
        </edge>
        <edge id="L0208">
            <lane id="L0208_0">
                <vehicle id="F06_0" pos="10.82" speed="3.82"/>
            </lane>
        </edge>
        <edge id="L0309">
            <lane id="L0309_0">
                <vehicle id="F07_0" pos="10.56" speed="3.83"/>
            </lane>
        </edge>
        <edge id="L0511">
            <lane id="L0511_0">
                <vehicle id="F09_0" pos="12.06" speed="4.37"/>
            </lane>
        </edge>
        <edge id="L0612">
            <lane id="L0612_0">
                <vehicle id="F10_0" pos="12.37" speed="4.72"/>
            </lane>
            <lane id="L0612_1"/>
            <lane id="L0612_2"/>
        </edge>
        <edge id="L1211">
            <lane id="L1211_0">
                <vehicle id="F03_0" pos="10.23" speed="3.29"/>
            </lane>
            <lane id="L1211_1"/>
        </edge>
        <edge id="L1314">
            <lane id="L1314_0">
                <vehicle id="F04_0" pos="11.54" speed="4.48"/>
            </lane>
            <lane id="L1314_1"/>
        </edge>
        <edge id="L1812">
            <lane id="L1812_0">
                <vehicle id="F11_0" pos="12.44" speed="4.80"/>
            </lane>
            <lane id="L1812_1"/>
            <lane id="L1812_2"/>
        </edge>
        <edge id="L1913">
            <lane id="L1913_0">
                <vehicle id="F00_0" pos="10.31" speed="3.54"/>
            </lane>
            <lane id="L1913_1"/>
            <lane id="L1913_2"/>
        </edge>
        <edge id="L2115">
            <lane id="L2115_0">
                <vehicle id="F075_0" pos="9.93" speed="3.10"/>
            </lane>
        </edge>
        <edge id="L2216">
            <lane id="L2216_0">
                <vehicle id="F08_0" pos="10.62" speed="3.52"/>
            </lane>
        </edge>
        <edge id="L2423">
            <lane id="L2423_0">
                <vehicle id="F05_0" pos="10.00" speed="3.45"/>
            </lane>
            <lane id="L2423_1"/>
        </edge>
    </timestep>
    <timestep time="3.00">
        <edge id="L0102">
            <lane id="L0102_0">
                <vehicle id="F02_0" pos="19.41" speed="7.21"/>
            </lane>
            <lane id="L0102_1"/>
        </edge>
        <edge id="L0107">
            <lane id="L0107_0">
                <vehicle id="F01_0" pos="15.03" speed="4.95"/>
            </lane>
            <lane id="L0107_1"/>
            <lane id="L0107_2"/>
        </edge>
        <edge id="L0208">
            <lane id="L0208_0">
                <vehicle id="F06_0" pos="16.00" speed="5.18"/>
            </lane>
        </edge>
        <edge id="L0309">
            <lane id="L0309_0">
                <vehicle id="F07_0" pos="16.96" speed="6.39"/>
            </lane>
        </edge>
        <edge id="L0511">
            <lane id="L0511_0">
                <vehicle id="F09_0" pos="18.14" speed="6.08"/>
            </lane>
        </edge>
        <edge id="L0612">
            <lane id="L0612_0">
                <vehicle id="F10_0" pos="19.30" speed="6.93"/>
            </lane>
            <lane id="L0612_1"/>
            <lane id="L0612_2"/>
        </edge>
        <edge id="L1211">
            <lane id="L1211_0">
                <vehicle id="F03_0" pos="16.08" speed="5.85"/>
            </lane>
            <lane id="L1211_1"/>
        </edge>
        <edge id="L1314">
            <lane id="L1314_0">
                <vehicle id="F04_0" pos="18.32" speed="6.78"/>
            </lane>
            <lane id="L1314_1"/>
        </edge>
        <edge id="L1812">
            <lane id="L1812_0">
                <vehicle id="F11_0" pos="19.13" speed="6.69"/>
            </lane>
            <lane id="L1812_1"/>
            <lane id="L1812_2"/>
        </edge>
        <edge id="L1913">
            <lane id="L1913_0">
                <vehicle id="F00_0" pos="15.93" speed="5.62"/>
            </lane>
            <lane id="L1913_1"/>
            <lane id="L1913_2"/>
        </edge>
        <edge id="L2115">
            <lane id="L2115_0">
                <vehicle id="F075_0" pos="15.20" speed="5.27"/>
            </lane>
        </edge>
        <edge id="L2216">
            <lane id="L2216_0">
                <vehicle id="F08_0" pos="16.57" speed="5.95"/>
            </lane>
        </edge>
        <edge id="L2423">
            <lane id="L2423_0">
                <vehicle id="F05_0" pos="14.90" speed="4.90"/>
            </lane>
            <lane id="L2423_1"/>
        </edge>
    </timestep>
    <timestep time="4.00">
        <edge id="L0102">
            <lane id="L0102_0">
                <vehicle id="F02_0" pos="28.91" speed="9.50"/>
            </lane>
            <lane id="L0102_1"/>
        </edge>
        <edge id="L0107">
            <lane id="L0107_0">
                <vehicle id="F01_0" pos="21.84" speed="6.81"/>
            </lane>
            <lane id="L0107_1">
                <vehicle id="F01_1" pos="5.10" speed="0.00"/>
            </lane>
            <lane id="L0107_2"/>
        </edge>
        <edge id="L0208">
            <lane id="L0208_0">
                <vehicle id="F06_0" pos="22.72" speed="6.73"/>
            </lane>
        </edge>
        <edge id="L0309">
            <lane id="L0309_0">
                <vehicle id="F07_0" pos="25.83" speed="8.88"/>
            </lane>
        </edge>
        <edge id="L0511">
            <lane id="L0511_0">
                <vehicle id="F09_0" pos="25.95" speed="7.81"/>
            </lane>
        </edge>
        <edge id="L0612">
            <lane id="L0612_0">
                <vehicle id="F10_0" pos="28.61" speed="9.31"/>
            </lane>
            <lane id="L0612_1"/>
            <lane id="L0612_2"/>
        </edge>
        <edge id="L1211">
            <lane id="L1211_0">
                <vehicle id="F03_0" pos="24.24" speed="8.16"/>
            </lane>
            <lane id="L1211_1"/>
        </edge>
        <edge id="L1314">
            <lane id="L1314_0">
                <vehicle id="F04_0" pos="27.35" speed="9.03"/>
            </lane>
            <lane id="L1314_1">
                <vehicle id="F04_1" pos="5.10" speed="0.00"/>
            </lane>
        </edge>
        <edge id="L1812">
            <lane id="L1812_0">
                <vehicle id="F11_0" pos="27.16" speed="8.04"/>
            </lane>
            <lane id="L1812_1">
                <vehicle id="F11_1" pos="5.10" speed="0.00"/>
            </lane>
            <lane id="L1812_2"/>
        </edge>
        <edge id="L1913">
            <lane id="L1913_0">
                <vehicle id="F00_0" pos="23.62" speed="7.69"/>
            </lane>
            <lane id="L1913_1">
                <vehicle id="F00_1" pos="5.10" speed="0.00"/>
            </lane>
            <lane id="L1913_2"/>
        </edge>
        <edge id="L2115">
            <lane id="L2115_0">
                <vehicle id="F075_0" pos="22.15" speed="6.94"/>
            </lane>
        </edge>
        <edge id="L2216">
            <lane id="L2216_0">
                <vehicle id="F08_0" pos="24.35" speed="7.78"/>
            </lane>
        </edge>
        <edge id="L2423">
            <lane id="L2423_0">
                <vehicle id="F05_0" pos="22.23" speed="7.34"/>
            </lane>
            <lane id="L2423_1"/>
        </edge>
    </timestep>
    <timestep time="5.00">
        <edge id="L0102">
            <lane id="L0102_0">
                <vehicle id="F02_0" pos="40.97" speed="12.06"/>
            </lane>
            <lane id="L0102_1"/>
        </edge>
        <edge id="L0107">
            <lane id="L0107_0">
                <vehicle id="F01_0" pos="31.05" speed="9.21"/>
            </lane>
            <lane id="L0107_1">
                <vehicle id="F01_1" pos="7.30" speed="2.20"/>
            </lane>
            <lane id="L0107_2"/>
        </edge>
        <edge id="L0208">
            <lane id="L0208_0">
                <vehicle id="F06_0" pos="31.68" speed="8.96"/>
            </lane>
        </edge>
        <edge id="L0309">
            <lane id="L0309_0">
                <vehicle id="F07_0" pos="36.30" speed="10.47"/>
            </lane>
        </edge>
        <edge id="L0511">
            <lane id="L0511_0">
                <vehicle id="F09_0" pos="35.15" speed="9.20"/>
            </lane>
        </edge>
        <edge id="L0612">
            <lane id="L0612_0">
                <vehicle id="F10_0" pos="39.69" speed="11.08"/>
            </lane>
            <lane id="L0612_1"/>
            <lane id="L0612_2"/>
        </edge>
        <edge id="L1211">
            <lane id="L1211_0">
                <vehicle id="F03_0" pos="34.77" speed="10.52"/>
            </lane>
            <lane id="L1211_1"/>
        </edge>
        <edge id="L1314">
            <lane id="L1314_0">
                <vehicle id="F04_0" pos="37.74" speed="10.39"/>
            </lane>
            <lane id="L1314_1">
                <vehicle id="F04_1" pos="6.45" speed="1.35"/>
            </lane>
        </edge>
        <edge id="L1812">
            <lane id="L1812_0">
                <vehicle id="F11_0" pos="37.58" speed="10.42"/>
            </lane>
            <lane id="L1812_1">
                <vehicle id="F11_1" pos="6.48" speed="1.38"/>
            </lane>
            <lane id="L1812_2"/>
        </edge>
        <edge id="L1913">
            <lane id="L1913_0">
                <vehicle id="F00_0" pos="33.15" speed="9.53"/>
            </lane>
            <lane id="L1913_1">
                <vehicle id="F00_1" pos="6.80" speed="1.70"/>
            </lane>
            <lane id="L1913_2"/>
        </edge>
        <edge id="L2115">
            <lane id="L2115_0">
                <vehicle id="F075_0" pos="31.60" speed="9.46"/>
            </lane>
        </edge>
        <edge id="L2216">
            <lane id="L2216_0">
                <vehicle id="F08_0" pos="34.50" speed="10.15"/>
            </lane>
        </edge>
        <edge id="L2423">
            <lane id="L2423_0">
                <vehicle id="F05_0" pos="31.53" speed="9.30"/>
            </lane>
            <lane id="L2423_1"/>
        </edge>
    </timestep>
    <timestep time="6.00">
        <edge id="L0102">
            <lane id="L0102_0">
                <vehicle id="F02_0" pos="55.25" speed="14.28"/>
            </lane>
            <lane id="L0102_1"/>
        </edge>
        <edge id="L0107">
            <lane id="L0107_0">
                <vehicle id="F01_0" pos="42.40" speed="11.35"/>
            </lane>
            <lane id="L0107_1">
                <vehicle id="F01_1" pos="11.99" speed="4.69"/>
            </lane>
            <lane id="L0107_2"/>
        </edge>
        <edge id="L0208">
            <lane id="L0208_0">
                <vehicle id="F06_0" pos="42.59" speed="10.90"/>
            </lane>
        </edge>
        <edge id="L0309">
            <lane id="L0309_0">
                <vehicle id="F07_0" pos="46.60" speed="10.30"/>
            </lane>
        </edge>
        <edge id="L0511">
            <lane id="L0511_0">
                <vehicle id="F09_0" pos="45.78" speed="10.63"/>
            </lane>
        </edge>
        <edge id="L0612">
            <lane id="L0612_0">
                <vehicle id="F10_0" pos="52.44" speed="12.74"/>
            </lane>
            <lane id="L0612_1"/>
            <lane id="L0612_2"/>
        </edge>
        <edge id="L1211">
            <lane id="L1211_0">
                <vehicle id="F03_0" pos="47.79" speed="13.02"/>
            </lane>
            <lane id="L1211_1"/>
        </edge>
        <edge id="L1314">
            <lane id="L1314_0">
                <vehicle id="F04_0" pos="50.67" speed="12.93"/>
            </lane>
            <lane id="L1314_1">
                <vehicle id="F04_1" pos="9.96" speed="3.51"/>
            </lane>
        </edge>
        <edge id="L1812">
            <lane id="L1812_0">
                <vehicle id="F11_0" pos="50.36" speed="12.78"/>
            </lane>
            <lane id="L1812_1">
                <vehicle id="F11_1" pos="10.06" speed="3.58"/>
            </lane>
            <lane id="L1812_2"/>
        </edge>
        <edge id="L1913">
            <lane id="L1913_0">
                <vehicle id="F00_0" pos="45.02" speed="11.86"/>
            </lane>
            <lane id="L1913_1">
                <vehicle id="F00_1" pos="9.81" speed="3.01"/>
            </lane>
            <lane id="L1913_2"/>
        </edge>
        <edge id="L2115">
            <lane id="L2115_0">
                <vehicle id="F075_0" pos="41.98" speed="10.38"/>
            </lane>
        </edge>
        <edge id="L2216">
            <lane id="L2216_0">
                <vehicle id="F08_0" pos="45.17" speed="10.67"/>
            </lane>
        </edge>
        <edge id="L2423">
            <lane id="L2423_0">
                <vehicle id="F05_0" pos="42.69" speed="11.16"/>
            </lane>
            <lane id="L2423_1"/>
        </edge>
    </timestep>
    <timestep time="7.00">
        <edge id="L0102">
            <lane id="L0102_0">
                <vehicle id="F02_0" pos="69.70" speed="14.45"/>
            </lane>
            <lane id="L0102_1"/>
        </edge>
        <edge id="L0107">
            <lane id="L0107_0">
                <vehicle id="F01_0" pos="55.54" speed="13.14"/>
            </lane>
            <lane id="L0107_1">
                <vehicle id="F01_1" pos="18.73" speed="6.75"/>
            </lane>
            <lane id="L0107_2"/>
        </edge>
        <edge id="L0208">
            <lane id="L0208_0">
                <vehicle id="F06_0" pos="53.13" speed="10.54"/>
            </lane>
        </edge>
        <edge id="L0309">
            <lane id="L0309_0">
                <vehicle id="F07_0" pos="57.23" speed="10.63"/>
            </lane>
        </edge>
        <edge id="L0511">
            <lane id="L0511_0">
                <vehicle id="F09_0" pos="56.04" speed="10.26"/>
            </lane>
        </edge>
        <edge id="L0612">
            <lane id="L0612_0">
                <vehicle id="F10_0" pos="66.64" speed="14.20"/>
            </lane>
            <lane id="L0612_1"/>
            <lane id="L0612_2"/>
        </edge>
        <edge id="L1211">
            <lane id="L1211_0">
                <vehicle id="F03_0" pos="63.27" speed="15.48"/>
            </lane>
            <lane id="L1211_1"/>
        </edge>
        <edge id="L1314">
            <lane id="L1314_0">
                <vehicle id="F04_0" pos="65.81" speed="15.14"/>
            </lane>
            <lane id="L1314_1">
                <vehicle id="F04_1" pos="15.31" speed="5.35"/>
            </lane>
        </edge>
        <edge id="L1812">
            <lane id="L1812_0">
                <vehicle id="F11_0" pos="65.71" speed="15.35"/>
            </lane>
            <lane id="L1812_1">
                <vehicle id="F11_1" pos="15.16" speed="5.10"/>
            </lane>
            <lane id="L1812_2"/>
        </edge>
        <edge id="L1913">
            <lane id="L1913_0">
                <vehicle id="F00_0" pos="58.21" speed="13.19"/>
            </lane>
            <lane id="L1913_1">
                <vehicle id="F00_1" pos="14.76" speed="4.94"/>
            </lane>
            <lane id="L1913_2"/>
        </edge>
        <edge id="L2115">
            <lane id="L2115_0">
                <vehicle id="F075_0" pos="52.57" speed="10.59"/>
            </lane>
        </edge>
        <edge id="L2216">
            <lane id="L2216_0">
                <vehicle id="F08_0" pos="55.21" speed="10.04"/>
            </lane>
        </edge>
        <edge id="L2423">
            <lane id="L2423_0">
                <vehicle id="F05_0" pos="55.97" speed="13.28"/>
            </lane>
            <lane id="L2423_1"/>
        </edge>
    </timestep>
    <timestep time="8.00">
        <edge id="L0102">
            <lane id="L0102_0">
                <vehicle id="F02_0" pos="84.42" speed="14.72"/>
            </lane>
            <lane id="L0102_1"/>
        </edge>
        <edge id="L0107">
            <lane id="L0107_0">
                <vehicle id="F01_0" pos="70.92" speed="15.37"/>
            </lane>
            <lane id="L0107_1">
                <vehicle id="F01_1" pos="27.54" speed="8.81"/>
            </lane>
            <lane id="L0107_2"/>
        </edge>
        <edge id="L0208">
            <lane id="L0208_0">
                <vehicle id="F06_0" pos="64.15" speed="11.02"/>
            </lane>
        </edge>
        <edge id="L0309">
            <lane id="L0309_0">
                <vehicle id="F07_0" pos="67.48" speed="10.25"/>
            </lane>
        </edge>
        <edge id="L0511">
            <lane id="L0511_0">
                <vehicle id="F09_0" pos="67.03" speed="11.00"/>
            </lane>
        </edge>
        <edge id="L0612">
            <lane id="L0612_0">
                <vehicle id="F10_0" pos="82.43" speed="15.79"/>
            </lane>
            <lane id="L0612_1"/>
            <lane id="L0612_2"/>
        </edge>
        <edge id="L1211">
            <lane id="L1211_0">
                <vehicle id="F03_0" pos="78.06" speed="14.79"/>
            </lane>
            <lane id="L1211_1"/>
        </edge>
        <edge id="L1314">
            <lane id="L1314_0">
                <vehicle id="F04_2" pos="5.10" speed="0.00"/>
                <vehicle id="F04_0" pos="80.85" speed="15.04"/>
            </lane>
            <lane id="L1314_1">
                <vehicle id="F04_1" pos="22.88" speed="7.57"/>
            </lane>
        </edge>
        <edge id="L1812">
            <lane id="L1812_0">
                <vehicle id="F11_0" pos="83.53" speed="17.82"/>
            </lane>
            <lane id="L1812_1">
                <vehicle id="F11_1" pos="21.60" speed="6.44"/>
            </lane>
            <lane id="L1812_2"/>
        </edge>
        <edge id="L1913">
            <lane id="L1913_0">
                <vehicle id="F00_0" pos="73.10" speed="14.88"/>
            </lane>
            <lane id="L1913_1">
                <vehicle id="F00_1" pos="21.55" speed="6.80"/>
            </lane>
            <lane id="L1913_2">
                <vehicle id="F00_2" pos="5.10" speed="0.00"/>
            </lane>
        </edge>
        <edge id="L2115">
            <lane id="L2115_0">
                <vehicle id="F075_0" pos="62.60" speed="10.03"/>
            </lane>
        </edge>
        <edge id="L2216">
            <lane id="L2216_0">
                <vehicle id="F08_0" pos="65.91" speed="10.70"/>
            </lane>
        </edge>
        <edge id="L2423">
            <lane id="L2423_0">
                <vehicle id="F05_0" pos="71.18" speed="15.20"/>
            </lane>
            <lane id="L2423_1">
                <vehicle id="F05_1" pos="5.10" speed="0.00"/>
            </lane>
        </edge>
    </timestep>
    <timestep time="9.00">
        <edge id="L0102">
            <lane id="L0102_0">
                <vehicle id="F02_0" pos="99.19" speed="14.76"/>
            </lane>
            <lane id="L0102_1"/>
        </edge>
        <edge id="L0107">
            <lane id="L0107_0">
                <vehicle id="F01_0" pos="88.40" speed="17.48"/>
            </lane>
            <lane id="L0107_1">
                <vehicle id="F01_1" pos="37.86" speed="10.31"/>
            </lane>
            <lane id="L0107_2">
                <vehicle id="F01_2" pos="5.10" speed="0.00"/>
            </lane>
        </edge>
        <edge id="L0208">
            <lane id="L0208_0">
                <vehicle id="F06_0" pos="74.56" speed="10.41"/>
            </lane>
        </edge>
        <edge id="L0309">
            <lane id="L0309_0">
                <vehicle id="F07_0" pos="77.92" speed="10.43"/>
            </lane>
        </edge>
        <edge id="L0511">
            <lane id="L0511_0">
                <vehicle id="F09_0" pos="78.08" speed="11.05"/>
            </lane>
        </edge>
        <edge id="L0612">
            <lane id="L0612_0">
                <vehicle id="F10_0" pos="100.46" speed="18.03"/>
            </lane>
            <lane id="L0612_1"/>
            <lane id="L0612_2"/>
        </edge>
        <edge id="L1211">
            <lane id="L1211_0">
                <vehicle id="F03_0" pos="92.95" speed="14.88"/>
            </lane>
            <lane id="L1211_1"/>
        </edge>
        <edge id="L1314">
            <lane id="L1314_0">
                <vehicle id="F04_2" pos="6.84" speed="1.74"/>
                <vehicle id="F04_0" pos="95.94" speed="15.09"/>
            </lane>
            <lane id="L1314_1">
                <vehicle id="F04_1" pos="31.77" speed="8.89"/>
            </lane>
        </edge>
        <edge id="L1812">
            <lane id="L1812_0">
                <vehicle id="F11_0" pos="103.20" speed="19.67"/>
            </lane>
            <lane id="L1812_1">
                <vehicle id="F11_1" pos="29.77" speed="8.16"/>
            </lane>
            <lane id="L1812_2">
                <vehicle id="F11_2" pos="5.10" speed="0.00"/>
            </lane>
        </edge>
        <edge id="L1913">
            <lane id="L1913_0">
                <vehicle id="F00_0" pos="89.41" speed="16.31"/>
            </lane>
            <lane id="L1913_1">
                <vehicle id="F00_1" pos="30.45" speed="8.89"/>
            </lane>
            <lane id="L1913_2">
                <vehicle id="F00_2" pos="7.64" speed="2.54"/>
            </lane>
        </edge>
        <edge id="L2115">
            <lane id="L2115_0">
                <vehicle id="F075_0" pos="72.67" speed="10.07"/>
            </lane>
        </edge>
        <edge id="L2216">
            <lane id="L2216_0">
                <vehicle id="F08_0" pos="76.26" speed="10.35"/>
            </lane>
        </edge>
        <edge id="L2423">
            <lane id="L2423_0">
                <vehicle id="F05_0" pos="86.63" speed="15.45"/>
            </lane>
            <lane id="L2423_1">
                <vehicle id="F05_1" pos="7.08" speed="1.98"/>
            </lane>
        </edge>
    </timestep>
    <timestep time="10.00">
        <edge id="L0102">
            <lane id="L0102_0">
                <vehicle id="F02_0" pos="114.82" speed="15.63"/>
            </lane>
            <lane id="L0102_1"/>
        </edge>
        <edge id="L0107">
            <lane id="L0107_0">
                <vehicle id="F01_0" pos="107.29" speed="18.89"/>
            </lane>
            <lane id="L0107_1">
                <vehicle id="F01_1" pos="49.59" speed="11.74"/>
            </lane>
            <lane id="L0107_2">
                <vehicle id="F01_2" pos="6.47" speed="1.37"/>
            </lane>
        </edge>
        <edge id="L0208">
            <lane id="L0208_0">
                <vehicle id="F06_0" pos="85.10" speed="10.55"/>
            </lane>
        </edge>
        <edge id="L0309">
            <lane id="L0309_0">
                <vehicle id="F07_0" pos="87.91" speed="10.00"/>
            </lane>
        </edge>
        <edge id="L0511">
            <lane id="L0511_0">
                <vehicle id="F09_0" pos="88.72" speed="10.64"/>
            </lane>
        </edge>
        <edge id="L0612">
            <lane id="L0612_0">
                <vehicle id="F10_0" pos="119.72" speed="19.26"/>
            </lane>
            <lane id="L0612_1"/>
            <lane id="L0612_2"/>
        </edge>
        <edge id="L1211">
            <lane id="L1211_0">
                <vehicle id="F03_0" pos="108.59" speed="15.65"/>
            </lane>
            <lane id="L1211_1"/>
        </edge>
        <edge id="L1314">
            <lane id="L1314_0">
                <vehicle id="F04_2" pos="10.56" speed="3.73"/>
                <vehicle id="F04_0" pos="111.15" speed="15.21"/>
            </lane>
            <lane id="L1314_1">
                <vehicle id="F04_1" pos="42.64" speed="10.87"/>
            </lane>
        </edge>
        <edge id="L1812">
            <lane id="L1812_0">