<?xml version="1.0"?>

<!-- generated on Fri Apr 12 17:18:20 2013 by SUMO sumo Version 0.16.0
<?xml version="1.0" encoding="UTF-8"?>

<configuration xmlns:xsi="http://www.w3.org/2001/XMLSchema-instance" xsi:noNamespaceSchemaLocation="http://sumo.sf.net/xsd/sumoConfiguration.xsd">

    <input>
        <net-file value="grid6_4.net.xml"/>
        <route-files value="grid6_4.rou.xml"/>
    </input>

    <output>
        <netstate-dump value="netstate6_4.xml"/>
    </output>

    <time>
        <begin value="0"/>
        <end value="200"/>
    </time>

    <processing>
        <time-to-teleport value="-1"/>
    </processing>

    <report>
        <verbose value="true"/>
    </report>

</configuration>
-->

<sumo-netstate>
    <timestep time="0.00">
        <edge id="L0102">
            <lane id="L0102_0">
                <vehicle id="F02_0" pos="5.10" speed="0.00"/>
            </lane>
            <lane id="L0102_1"/>
        </edge>
        <edge id="L0107">
            <lane id="L0107_0"/>
            <lane id="L0107_1"/>
            <lane id="L0107_2">
                <vehicle id="F01_0" pos="5.10" speed="0.00"/>
            </lane>
        </edge>
        <edge id="L0208">
            <lane id="L0208_0">
                <vehicle id="F06_0" pos="5.10" speed="0.00"/>
            </lane>
        </edge>
        <edge id="L0309">
            <lane id="L0309_0"/>
            <lane id="L0309_1">
                <vehicle id="F07_0" pos="5.10" speed="0.00"/>
            </lane>
            <lane id="L0309_2"/>
        </edge>
        <edge id="L0511">
            <lane id="L0511_0">
                <vehicle id="F09_0" pos="5.10" speed="0.00"/>
            </lane>
        </edge>
        <edge id="L0612">
            <lane id="L0612_0"/>
            <lane id="L0612_1"/>
            <lane id="L0612_2">
                <vehicle id="F10_0" pos="5.10" speed="0.00"/>
            </lane>
        </edge>
        <edge id="L1211">
            <lane id="L1211_0">
                <vehicle id="F03_0" pos="5.10" speed="0.00"/>
            </lane>
            <lane id="L1211_1"/>
        </edge>
        <edge id="L1314">
            <lane id="L1314_0"/>
            <lane id="L1314_1">
                <vehicle id="F04_0" pos="5.10" speed="0.00"/>
            </lane>
        </edge>
        <edge id="L1913">
            <lane id="L1913_0">
                <vehicle id="F00_0" pos="5.10" speed="0.00"/>
            </lane>
            <lane id="L1913_1">
                <vehicle id="F12_0" pos="5.10" speed="0.00"/>
            </lane>
            <lane id="L1913_2"/>
        </edge>
        <edge id="L2115">
            <lane id="L2115_0">
                <vehicle id="F075_0" pos="5.10" speed="0.00"/>
            </lane>
            <lane id="L2115_1"/>
            <lane id="L2115_2"/>
        </edge>
        <edge id="L2216">
            <lane id="L2216_0">
                <vehicle id="F08_0" pos="5.10" speed="0.00"/>
            </lane>
        </edge>
        <edge id="L2418">
            <lane id="L2418_0"/>
            <lane id="L2418_1"/>
            <lane id="L2418_2">
                <vehicle id="F11_0" pos="5.10" speed="0.00"/>
            </lane>
        </edge>
        <edge id="L2423">
            <lane id="L2423_0">
                <vehicle id="F05_0" pos="5.10" speed="0.00"/>
            </lane>
            <lane id="L2423_1"/>
        </edge>
    </timestep>
    <timestep time="1.00">
        <edge id="L0102">
            <lane id="L0102_0">
                <vehicle id="F02_0" pos="7.14" speed="2.04"/>
            </lane>
            <lane id="L0102_1"/>
        </edge>
        <edge id="L0107">
            <lane id="L0107_0"/>
            <lane id="L0107_1"/>
            <lane id="L0107_2">
                <vehicle id="F01_0" pos="7.68" speed="2.58"/>
            </lane>
        </edge>
        <edge id="L0208">
            <lane id="L0208_0">
                <vehicle id="F06_0" pos="6.46" speed="1.36"/>
            </lane>
        </edge>
        <edge id="L0309">
            <lane id="L0309_0"/>
            <lane id="L0309_1">
                <vehicle id="F07_0" pos="6.91" speed="1.81"/>
            </lane>
            <lane id="L0309_2"/>
        </edge>
        <edge id="L0511">
            <lane id="L0511_0">
                <vehicle id="F09_0" pos="6.54" speed="1.44"/>
            </lane>
        </edge>
        <edge id="L0612">
            <lane id="L0612_0"/>
            <lane id="L0612_1">
                <vehicle id="F13_0" pos="5.10" speed="0.00"/>
            </lane>
            <lane id="L0612_2">
                <vehicle id="F10_0" pos="6.67" speed="1.57"/>
            </lane>
        </edge>
        <edge id="L1211">
            <lane id="L1211_0">
                <vehicle id="F03_0" pos="6.52" speed="1.42"/>
            </lane>
            <lane id="L1211_1"/>
        </edge>
        <edge id="L1314">
            <lane id="L1314_0"/>
            <lane id="L1314_1">
                <vehicle id="F04_0" pos="6.43" speed="1.33"/>
            </lane>
        </edge>
        <edge id="L1913">
            <lane id="L1913_0">
                <vehicle id="F00_0" pos="7.27" speed="2.17"/>
            </lane>
            <lane id="L1913_1">
                <vehicle id="F12_0" pos="6.96" speed="1.86"/>
            </lane>
            <lane id="L1913_2"/>
        </edge>
        <edge id="L2115">
            <lane id="L2115_0">
                <vehicle id="F075_0" pos="6.80" speed="1.70"/>
            </lane>
            <lane id="L2115_1"/>
            <lane id="L2115_2"/>
        </edge>
        <edge id="L2216">
            <lane id="L2216_0">
                <vehicle id="F08_0" pos="7.28" speed="2.18"/>
            </lane>
        </edge>
        <edge id="L2418">
            <lane id="L2418_0"/>
            <lane id="L2418_1"/>
            <lane id="L2418_2">
                <vehicle id="F11_0" pos="6.46" speed="1.36"/>
            </lane>
        </edge>
        <edge id="L2423">
            <lane id="L2423_0">
                <vehicle id="F05_0" pos="6.53" speed="1.43"/>
            </lane>
            <lane id="L2423_1"/>
        </edge>
    </timestep>
    <timestep time="2.00">
        <edge id="L0102">
            <lane id="L0102_0">
                <vehicle id="F02_0" pos="10.90" speed="3.76"/>
            </lane>
            <lane id="L0102_1"/>
        </edge>
        <edge id="L0107">
            <lane id="L0107_0"/>
            <lane id="L0107_1"/>
            <lane id="L0107_2">
                <vehicle id="F01_0" pos="12.15" speed="4.48"/>
            </lane>
        </edge>
        <edge id="L0208">
            <lane id="L0208_0">
                <vehicle id="F06_0" pos="9.49" speed="3.04"/>
            </lane>
        </edge>
        <edge id="L0309">
            <lane id="L0309_0"/>
            <lane id="L0309_1">
                <vehicle id="F07_0" pos="11.27" speed="4.36"/>
            </lane>
            <lane id="L0309_2"/>
        </edge>
        <edge id="L0511">
            <lane id="L0511_0">
                <vehicle id="F09_0" pos="9.42" speed="2.88"/>
            </lane>
        </edge>
        <edge id="L0612">
            <lane id="L0612_0"/>
            <lane id="L0612_1">
                <vehicle id="F13_0" pos="6.59" speed="1.49"/>
            </lane>
            <lane id="L0612_2">
                <vehicle id="F10_0" pos="10.52" speed="3.85"/>
            </lane>
        </edge>
        <edge id="L1211">
            <lane id="L1211_0">
                <vehicle id="F03_0" pos="10.46" speed="3.94"/>
            </lane>
            <lane id="L1211_1"/>
        </edge>
        <edge id="L1314">
            <lane id="L1314_0"/>
            <lane id="L1314_1">
                <vehicle id="F04_0" pos="10.29" speed="3.86"/>
            </lane>
        </edge>
        <edge id="L1913">
            <lane id="L1913_0">
                <vehicle id="F00_0" pos="11.86" speed="4.59"/>
            </lane>
            <lane id="L1913_1">
                <vehicle id="F12_0" pos="10.31" speed="3.35"/>
            </lane>
            <lane id="L1913_2"/>
        </edge>
        <edge id="L2115">
            <lane id="L2115_0">
                <vehicle id="F075_0" pos="9.81" speed="3.01"/>
            </lane>
            <lane id="L2115_1"/>
            <lane id="L2115_2"/>
        </edge>
        <edge id="L2216">
            <lane id="L2216_0">
                <vehicle id="F08_0" pos="11.78" speed="4.50"/>
            </lane>
        </edge>
        <edge id="L2418">
            <lane id="L2418_0"/>
            <lane id="L2418_1"/>
            <lane id="L2418_2">
                <vehicle id="F11_0" pos="10.41" speed="3.95"/>
            </lane>
        </edge>
        <edge id="L2423">
            <lane id="L2423_0">
                <vehicle id="F05_0" pos="10.10" speed="3.58"/>
            </lane>
            <lane id="L2423_1"/>
        </edge>
    </timestep>
    <timestep time="3.00">
        <edge id="L0102">
            <lane id="L0102_0">
                <vehicle id="F02_0" pos="16.17" speed="5.27"/>
            </lane>
            <lane id="L0102_1"/>
        </edge>
        <edge id="L0107">
            <lane id="L0107_0"/>
            <lane id="L0107_1"/>
            <lane id="L0107_2">
                <vehicle id="F01_1" pos="5.10" speed="0.00"/>
                <vehicle id="F01_0" pos="18.97" speed="6.81"/>
            </lane>
        </edge>
        <edge id="L0208">
            <lane id="L0208_0">
                <vehicle id="F06_0" pos="14.58" speed="5.09"/>
            </lane>
        </edge>
        <edge id="L0309">
            <lane id="L0309_0"/>
            <lane id="L0309_1">
                <vehicle id="F07_0" pos="18.12" speed="6.85"/>
            </lane>
            <lane id="L0309_2"/>
        </edge>
        <edge id="L0511">
            <lane id="L0511_0">
                <vehicle id="F09_0" pos="13.74" speed="4.31"/>
            </lane>
        </edge>
        <edge id="L0612">
            <lane id="L0612_0"/>
            <lane id="L0612_1">
                <vehicle id="F13_0" pos="10.34" speed="3.75"/>
            </lane>
            <lane id="L0612_2">
                <vehicle id="F10_0" pos="16.86" speed="6.34"/>
            </lane>
        </edge>
        <edge id="L1211">
            <lane id="L1211_0">
                <vehicle id="F03_0" pos="16.85" speed="6.39"/>
            </lane>
            <lane id="L1211_1"/>
        </edge>
        <edge id="L1314">
            <lane id="L1314_0"/>
            <lane id="L1314_1">
                <vehicle id="F04_0" pos="16.09" speed="5.79"/>
            </lane>
        </edge>
        <edge id="L1913">
            <lane id="L1913_0">
                <vehicle id="F00_1" pos="5.10" speed="0.00"/>
                <vehicle id="F00_0" pos="18.69" speed="6.83"/>
            </lane>
            <lane id="L1913_1">
                <vehicle id="F12_0" pos="16.06" speed="5.75"/>
            </lane>
            <lane id="L1913_2"/>
        </edge>
        <edge id="L2115">
            <lane id="L2115_0">
                <vehicle id="F075_0" pos="14.36" speed="4.55"/>
            </lane>
            <lane id="L2115_1"/>
            <lane id="L2115_2"/>
        </edge>
        <edge id="L2216">
            <lane id="L2216_0">
                <vehicle id="F08_0" pos="17.61" speed="5.83"/>
            </lane>
        </edge>
        <edge id="L2418">
            <lane id="L2418_0"/>
            <lane id="L2418_1"/>
            <lane id="L2418_2">
                <vehicle id="F11_0" pos="16.46" speed="6.05"/>
            </lane>
        </edge>
        <edge id="L2423">
            <lane id="L2423_0">
                <vehicle id="F05_0" pos="15.40" speed="5.29"/>
            </lane>
            <lane id="L2423_1"/>
        </edge>
    </timestep>
    <timestep time="4.00">
        <edge id="L0102">
            <lane id="L0102_0">
                <vehicle id="F02_0" pos="23.21" speed="7.04"/>
            </lane>
            <lane id="L0102_1"/>
        </edge>
        <edge id="L0107">
            <lane id="L0107_0">
                <vehicle id="F01_2" pos="5.10" speed="0.00"/>
            </lane>
            <lane id="L0107_1"/>
            <lane id="L0107_2">
                <vehicle id="F01_1" pos="6.59" speed="1.49"/>
                <vehicle id="F01_0" pos="27.09" speed="8.13"/>
            </lane>
        </edge>
        <edge id="L0208">
            <lane id="L0208_0">
                <vehicle id="F06_0" pos="21.60" speed="7.02"/>
            </lane>
        </edge>
        <edge id="L0309">
            <lane id="L0309_0"/>
            <lane id="L0309_1">
                <vehicle id="F07_0" pos="26.79" speed="8.67"/>
            </lane>
            <lane id="L0309_2"/>
        </edge>
        <edge id="L0511">
            <lane id="L0511_0">
                <vehicle id="F09_0" pos="19.85" speed="6.11"/>
            </lane>
        </edge>
        <edge id="L0612">
            <lane id="L0612_0"/>
            <lane id="L0612_1">
                <vehicle id="F13_0" pos="16.54" speed="6.20"/>
            </lane>
            <lane id="L0612_2">
                <vehicle id="F10_0" pos="24.54" speed="7.68"/>
            </lane>
        </edge>
        <edge id="L1211">
            <lane id="L1211_0">
                <vehicle id="F03_0" pos="24.63" speed="7.78"/>
            </lane>
            <lane id="L1211_1"/>
        </edge>
        <edge id="L1314">
            <lane id="L1314_0"/>
            <lane id="L1314_1">
                <vehicle id="F04_0" pos="24.18" speed="8.10"/>
            </lane>
        </edge>
        <edge id="L1913">
            <lane id="L1913_0">
                <vehicle id="F00_1" pos="7.14" speed="2.04"/>
                <vehicle id="F00_0" pos="27.81" speed="9.12"/>
            </lane>
            <lane id="L1913_1">
                <vehicle id="F12_0" pos="24.06" speed="8.00"/>
            </lane>
            <lane id="L1913_2"/>
        </edge>
        <edge id="L2115">
            <lane id="L2115_0">
                <vehicle id="F075_0" pos="20.41" speed="6.04"/>
            </lane>
            <lane id="L2115_1"/>
            <lane id="L2115_2"/>
        </edge>
        <edge id="L2216">
            <lane id="L2216_0">
                <vehicle id="F08_0" pos="26.03" speed="8.42"/>
            </lane>
        </edge>
        <edge id="L2418">
            <lane id="L2418_0"/>
            <lane id="L2418_1"/>
            <lane id="L2418_2">
                <vehicle id="F11_0" pos="24.65" speed="8.19"/>
            </lane>
        </edge>
        <edge id="L2423">
            <lane id="L2423_0">
                <vehicle id="F05_0" pos="22.61" speed="7.22"/>
            </lane>
            <lane id="L2423_1"/>
        </edge>
    </timestep>
    <timestep time="5.00">
        <edge id="L0102">
            <lane id="L0102_0">
                <vehicle id="F02_0" pos="32.17" speed="8.95"/>
            </lane>
            <lane id="L0102_1"/>
        </edge>
        <edge id="L0107">
            <lane id="L0107_0">
                <vehicle id="F01_2" pos="7.51" speed="2.41"/>
            </lane>
            <lane id="L0107_1"/>
            <lane id="L0107_2">
                <vehicle id="F01_1" pos="9.80" speed="3.21"/>
                <vehicle id="F01_0" pos="36.84" speed="9.75"/>
            </lane>
        </edge>
        <edge id="L0208">
            <lane id="L0208_0">
                <vehicle id="F06_0" pos="30.94" speed="9.34"/>
            </lane>
        </edge>
        <edge id="L0309">
            <lane id="L0309_0"/>
            <lane id="L0309_1">
                <vehicle id="F07_0" pos="37.22" speed="10.43"/>
            </lane>
            <lane id="L0309_2"/>
        </edge>
        <edge id="L0511">
            <lane id="L0511_0">
                <vehicle id="F09_0" pos="27.53" speed="7.69"/>
            </lane>
        </edge>
        <edge id="L0612">
            <lane id="L0612_0"/>
            <lane id="L0612_1">
                <vehicle id="F13_0" pos="24.60" speed="8.06"/>
            </lane>
            <lane id="L0612_2">
                <vehicle id="F10_0" pos="33.58" speed="9.04"/>
            </lane>
        </edge>
        <edge id="L1211">
            <lane id="L1211_0">
                <vehicle id="F03_0" pos="33.74" speed="9.11"/>
            </lane>
            <lane id="L1211_1"/>
        </edge>
        <edge id="L1314">
            <lane id="L1314_0"/>
            <lane id="L1314_1">
                <vehicle id="F04_0" pos="34.81" speed="10.63"/>
            </lane>
        </edge>
        <edge id="L1913">
            <lane id="L1913_0">
                <vehicle id="F00_1" pos="11.73" speed="4.59"/>
                <vehicle id="F00_0" pos="39.35" speed="11.54"/>
            </lane>
            <lane id="L1913_1">
                <vehicle id="F12_0" pos="33.61" speed="9.55"/>
            </lane>
            <lane id="L1913_2"/>
        </edge>
        <edge id="L2115">
            <lane id="L2115_0">
                <vehicle id="F075_0" pos="28.06" speed="7.65"/>
            </lane>
            <lane id="L2115_1"/>
            <lane id="L2115_2"/>
        </edge>
        <edge id="L2216">
            <lane id="L2216_0">
                <vehicle id="F08_0" pos="35.99" speed="9.96"/>
            </lane>
        </edge>
        <edge id="L2418">
            <lane id="L2418_0"/>
            <lane id="L2418_1"/>
            <lane id="L2418_2">
                <vehicle id="F11_0" pos="35.28" speed="10.63"/>
            </lane>
        </edge>
        <edge id="L2423">
            <lane id="L2423_0">
                <vehicle id="F05_0" pos="32.41" speed="9.80"/>
            </lane>
            <lane id="L2423_1"/>
        </edge>
    </timestep>
    <timestep time="6.00">
        <edge id="L0102">
            <lane id="L0102_0">
                <vehicle id="F02_0" pos="42.92" speed="10.76"/>
            </lane>
            <lane id="L0102_1"/>
        </edge>
        <edge id="L0107">
            <lane id="L0107_0">
                <vehicle id="F01_2" pos="11.96" speed="4.45"/>
            </lane>
            <lane id="L0107_1"/>
            <lane id="L0107_2">
                <vehicle id="F01_3" pos="5.10" speed="0.00"/>
                <vehicle id="F01_1" pos="14.39" speed="4.60"/>
                <vehicle id="F01_0" pos="49.02" speed="12.18"/>
            </lane>
        </edge>
        <edge id="L0208">
            <lane id="L0208_0">
                <vehicle id="F06_0" pos="41.90" speed="10.95"/>
            </lane>
        </edge>
        <edge id="L0309">
            <lane id="L0309_0"/>
            <lane id="L0309_1">
                <vehicle id="F07_0" pos="49.05" speed="11.82"/>
            </lane>
            <lane id="L0309_2"/>
        </edge>
        <edge id="L0511">
            <lane id="L0511_0">
                <vehicle id="F09_0" pos="37.73" speed="10.20"/>
            </lane>
        </edge>
        <edge id="L0612">
            <lane id="L0612_0"/>
            <lane id="L0612_1">
                <vehicle id="F13_0" pos="34.58" speed="9.98"/>
            </lane>
            <lane id="L0612_2">
                <vehicle id="F10_0" pos="45.07" speed="11.49"/>
            </lane>
        </edge>
        <edge id="L1211">
            <lane id="L1211_0">
                <vehicle id="F03_0" pos="45.12" speed="11.38"/>
            </lane>
            <lane id="L1211_1"/>
        </edge>
        <edge id="L1314">
            <lane id="L1314_0"/>
            <lane id="L1314_1">
                <vehicle id="F04_0" pos="47.93" speed="13.12"/>
            </lane>
        </edge>
        <edge id="L1913">
            <lane id="L1913_0">
                <vehicle id="F00_2" pos="5.10" speed="0.00"/>
                <vehicle id="F00_1" pos="18.20" speed="6.47"/>
                <vehicle id="F00_0" pos="52.21" speed="12.85"/>
            </lane>
            <lane id="L1913_1">
                <vehicle id="F00_3" pos="5.10" speed="0.00"/>
                <vehicle id="F12_0" pos="45.20" speed="11.59"/>
            </lane>
            <lane id="L1913_2"/>
        </edge>
        <edge id="L2115">
            <lane id="L2115_0">
                <vehicle id="F075_0" pos="38.12" speed="10.06"/>
            </lane>
            <lane id="L2115_1"/>
            <lane id="L2115_2"/>
        </edge>
        <edge id="L2216">
            <lane id="L2216_0">
                <vehicle id="F08_0" pos="46.79" speed="10.80"/>
            </lane>
        </edge>
        <edge id="L2418">
            <lane id="L2418_0"/>
            <lane id="L2418_1"/>
            <lane id="L2418_2">
                <vehicle id="F11_0" pos="47.81" speed="12.53"/>
            </lane>
        </edge>
        <edge id="L2423">
            <lane id="L2423_0">
                <vehicle id="F05_0" pos="44.13" speed="11.72"/>
            </lane>
            <lane id="L2423_1"/>
        </edge>
    </timestep>
    <timestep time="7.00">
        <edge id="L0102">
            <lane id="L0102_0">
                <vehicle id="F02_0" pos="55.73" speed="12.81"/>
            </lane>
            <lane id="L0102_1"/>
        </edge>
        <edge id="L0107">
            <lane id="L0107_0">
                <vehicle id="F01_2" pos="17.78" speed="5.81"/>
            </lane>
            <lane id="L0107_1"/>
            <lane id="L0107_2">
                <vehicle id="F01_3" pos="6.81" speed="1.71"/>
                <vehicle id="F01_1" pos="21.21" speed="6.82"/>
                <vehicle id="F01_0" pos="62.79" speed="13.77"/>
            </lane>
        </edge>
        <edge id="L0208">
            <lane id="L0208_0">
                <vehicle id="F06_0" pos="51.80" speed="9.90"/>
            </lane>
        </edge>
        <edge id="L0309">
            <lane id="L0309_0"/>
            <lane id="L0309_1">
                <vehicle id="F07_0" pos="63.36" speed="14.32"/>
            </lane>
            <lane id="L0309_2"/>
        </edge>
        <edge id="L0511">
            <lane id="L0511_0">
                <vehicle id="F09_0" pos="48.61" speed="10.88"/>
            </lane>
        </edge>
        <edge id="L0612">
            <lane id="L0612_0"/>
            <lane id="L0612_1">
                <vehicle id="F13_0" pos="46.03" speed="11.45"/>
            </lane>
            <lane id="L0612_2">
                <vehicle id="F10_0" pos="57.90" speed="12.83"/>
            </lane>
        </edge>
        <edge id="L1211">
            <lane id="L1211_0">
                <vehicle id="F03_0" pos="58.36" speed="13.25"/>
            </lane>
            <lane id="L1211_1"/>
        </edge>
        <edge id="L1314">
            <lane id="L1314_0"/>
            <lane id="L1314_1">
                <vehicle id="F04_0" pos="62.38" speed="14.45"/>
            </lane>
        </edge>
        <edge id="L1913">
            <lane id="L1913_0">
                <vehicle id="F00_2" pos="6.57" speed="1.47"/>
                <vehicle id="F00_1" pos="26.40" speed="8.20"/>
                <vehicle id="F00_0" pos="67.11" speed="14.91"/>
            </lane>
            <lane id="L1913_1">
                <vehicle id="F00_3" pos="7.27" speed="2.17"/>
                <vehicle id="F12_0" pos="58.20" speed="12.99"/>
            </lane>
            <lane id="L1913_2"/>
        </edge>
        <edge id="L2115">
            <lane id="L2115_0">
                <vehicle id="F075_0" pos="49.85" speed="11.73"/>
            </lane>
            <lane id="L2115_1"/>
            <lane id="L2115_2"/>
        </edge>
        <edge id="L2216">
            <lane id="L2216_0">
                <vehicle id="F08_0" pos="57.76" speed="10.97"/>
            </lane>
        </edge>
        <edge id="L2418">
            <lane id="L2418_0"/>
            <lane id="L2418_1"/>
            <lane id="L2418_2">
                <vehicle id="F11_0" pos="62.43" speed="14.62"/>
            </lane>
        </edge>
        <edge id="L2423">
            <lane id="L2423_0">
                <vehicle id="F05_0" pos="57.23" speed="13.10"/>
            </lane>
            <lane id="L2423_1"/>
        </edge>
    </timestep>
    <timestep time="8.00">
        <edge id="L0102">
            <lane id="L0102_0"/>
            <lane id="L0102_1">
                <vehicle id="F02_0" pos="70.48" speed="14.74"/>
            </lane>
        </edge>
        <edge id="L0107">
            <lane id="L0107_0">
                <vehicle id="F01_2" pos="25.61" speed="7.83"/>
            </lane>
            <lane id="L0107_1"/>
            <lane id="L0107_2">
                <vehicle id="F01_3" pos="10.86" speed="4.05"/>
                <vehicle id="F01_1" pos="30.60" speed="9.39"/>
                <vehicle id="F01_0" pos="78.08" speed="15.29"/>
            </lane>
        </edge>
        <edge id="L0208">
            <lane id="L0208_0">
                <vehicle id="F06_0" pos="62.21" speed="10.41"/>
            </lane>
        </edge>
        <edge id="L0309">
            <lane id="L0309_0"/>
            <lane id="L0309_1">
                <vehicle id="F07_0" pos="79.62" speed="16.26"/>
            </lane>
            <lane id="L0309_2"/>
        </edge>
        <edge id="L0511">
            <lane id="L0511_0">
                <vehicle id="F09_0" pos="59.20" speed="10.59"/>
            </lane>
        </edge>
        <edge id="L0612">
            <lane id="L0612_0">
                <vehicle id="F13_0" pos="59.32" speed="13.29"/>
            </lane>
            <lane id="L0612_1"/>
            <lane id="L0612_2">
                <vehicle id="F10_0" pos="72.38" speed="14.48"/>
            </lane>
        </edge>
        <edge id="L1211">
            <lane id="L1211_0">
                <vehicle id="F03_0" pos="73.57" speed="15.21"/>
            </lane>
            <lane id="L1211_1"/>
        </edge>
        <edge id="L1314">
            <lane id="L1314_0"/>
            <lane id="L1314_1">
                <vehicle id="F04_0" pos="76.90" speed="14.52"/>
            </lane>
        </edge>
        <edge id="L1913">
            <lane id="L1913_0">
                <vehicle id="F00_2" pos="6.57" speed="0.00"/>
                <vehicle id="F00_1" pos="36.68" speed="10.28"/>
                <vehicle id="F12_0" pos="68.42" speed="10.23"/>
                <vehicle id="F00_0" pos="84.06" speed="16.94"/>
            </lane>
            <lane id="L1913_1">
                <vehicle id="F00_3" pos="10.98" speed="3.72"/>
            </lane>
            <lane id="L1913_2"/>
        </edge>
        <edge id="L2115">
            <lane id="L2115_0">
                <vehicle id="F075_0" pos="63.87" speed="14.03"/>
            </lane>
            <lane id="L2115_1"/>
            <lane id="L2115_2"/>
        </edge>
        <edge id="L2216">
            <lane id="L2216_0">
                <vehicle id="F08_0" pos="67.84" speed="10.08"/>
            </lane>
        </edge>
        <edge id="L2418">
            <lane id="L2418_0"/>
            <lane id="L2418_1"/>
            <lane id="L2418_2">
                <vehicle id="F11_0" pos="79.02" speed="16.59"/>
            </lane>
        </edge>
        <edge id="L2423">
            <lane id="L2423_0">
                <vehicle id="F05_0" pos="72.48" speed="15.25"/>
            </lane>
            <lane id="L2423_1"/>
        </edge>
    </timestep>
    <timestep time="9.00">
        <edge id="L0102">
            <lane id="L0102_0"/>
            <lane id="L0102_1">
                <vehicle id="F02_0" pos="85.40" speed="14.92"/>
            </lane>
        </edge>
        <edge id="L0107">
            <lane id="L0107_0">
                <vehicle id="F01_2" pos="35.58" speed="9.97"/>
            </lane>
            <lane id="L0107_1"/>
            <lane id="L0107_2">
                <vehicle id="F01_4" pos="5.10" speed="0.00"/>
                <vehicle id="F01_3" pos="16.26" speed="5.40"/>
                <vehicle id="F01_1" pos="41.53" speed="10.93"/>
                <vehicle id="F01_0" pos="95.05" speed="16.97"/>
            </lane>
        </edge>
        <edge id="L0208">
            <lane id="L0208_0">
                <vehicle id="F06_0" pos="72.16" speed="9.95"/>
            </lane>
        </edge>
        <edge id="L0309">
            <lane id="L0309_0"/>
            <lane id="L0309_1">
                <vehicle id="F07_0" pos="97.28" speed="17.67"/>
            </lane>
            <lane id="L0309_2"/>
        </edge>
        <edge id="L0511">
            <lane id="L0511_0">
                <vehicle id="F09_0" pos="70.35" speed="11.16"/>
            </lane>
        </edge>
        <edge id="L0612">
            <lane id="L0612_0">
                <vehicle id="F13_0" pos="74.38" speed="15.06"/>
            </lane>
            <lane id="L0612_1"/>
            <lane id="L0612_2">
                <vehicle id="F10_0" pos="88.58" speed="16.20"/>
            </lane>
        </edge>
        <edge id="L1211">
            <lane id="L1211_0">
                <vehicle id="F03_0" pos="89.06" speed="15.48"/>
            </lane>
            <lane id="L1211_1"/>
        </edge>
        <edge id="L1314">
            <lane id="L1314_0"/>
            <lane id="L1314_1">
                <vehicle id="F04_0" pos="92.46" speed="15.56"/>
            </lane>
        </edge>
        <edge id="L1913">
            <lane id="L1913_0">
                <vehicle id="F00_2" pos="8.34" speed="1.78"/>
                <vehicle id="F00_1" pos="49.33" speed="12.65"/>
                <vehicle id="F12_0" pos="80.19" speed="11.76"/>
                <vehicle id="F00_0" pos="102.46" speed="18.40"/>
            </lane>
            <lane id="L1913_1">
                <vehicle id="F00_3" pos="16.38" speed="5.39"/>
            </lane>
            <lane id="L1913_2"/>
        </edge>
        <edge id="L2115">
            <lane id="L2115_0">
                <vehicle id="F075_0" pos="79.75" speed="15.88"/>
            </lane>
            <lane id="L2115_1"/>