<?xml version="1.0"?>

<!-- generated on Tue Apr 16 18:31:58 2013 by SUMO sumo Version 0.16.0
<?xml version="1.0" encoding="UTF-8"?>

<configuration xmlns:xsi="http://www.w3.org/2001/XMLSchema-instance" xsi:noNamespaceSchemaLocation="http://sumo.sf.net/xsd/sumoConfiguration.xsd">

    <input>
        <net-file value="grid6_4.net.xml"/>
        <route-files value="grid6_4_2.rou.xml"/>
    </input>

    <output>
        <netstate-dump value="netstate6_4_2.xml"/>
    </output>

</configuration>
-->

<sumo-netstate>
    <timestep time="0.00">
        <edge id="L0102">
            <lane id="L0102_0">
                <vehicle id="F02_0" pos="5.10" speed="0.00"/>
            </lane>
            <lane id="L0102_1"/>
        </edge>
        <edge id="L0107">
            <lane id="L0107_0"/>
            <lane id="L0107_1"/>
            <lane id="L0107_2">
                <vehicle id="F01_0" pos="5.10" speed="0.00"/>
            </lane>
        </edge>
        <edge id="L0208">
            <lane id="L0208_0">
                <vehicle id="F06_0" pos="5.10" speed="0.00"/>
            </lane>
        </edge>
        <edge id="L0309">
            <lane id="L0309_0"/>
            <lane id="L0309_1">
                <vehicle id="F07_0" pos="5.10" speed="0.00"/>
            </lane>
            <lane id="L0309_2"/>
        </edge>
        <edge id="L0511">
            <lane id="L0511_0">
                <vehicle id="F09_0" pos="5.10" speed="0.00"/>
            </lane>
        </edge>
        <edge id="L0612">
            <lane id="L0612_0"/>
            <lane id="L0612_1"/>
            <lane id="L0612_2">
                <vehicle id="F10_0" pos="5.10" speed="0.00"/>
            </lane>
        </edge>
        <edge id="L1211">
            <lane id="L1211_0">
                <vehicle id="F03_0" pos="5.10" speed="0.00"/>
            </lane>
            <lane id="L1211_1"/>
        </edge>
        <edge id="L1314">
            <lane id="L1314_0"/>
            <lane id="L1314_1">
                <vehicle id="F04_0" pos="5.10" speed="0.00"/>
            </lane>
        </edge>
        <edge id="L1913">
            <lane id="L1913_0">
                <vehicle id="F00_0" pos="5.10" speed="0.00"/>
            </lane>
            <lane id="L1913_1">
                <vehicle id="F12_0" pos="5.10" speed="0.00"/>
            </lane>
            <lane id="L1913_2"/>
        </edge>
        <edge id="L2115">
            <lane id="L2115_0">
                <vehicle id="F075_0" pos="5.10" speed="0.00"/>
            </lane>
            <lane id="L2115_1"/>
            <lane id="L2115_2"/>
        </edge>
        <edge id="L2216">
            <lane id="L2216_0">
                <vehicle id="F08_0" pos="5.10" speed="0.00"/>
            </lane>
        </edge>
        <edge id="L2418">
            <lane id="L2418_0"/>
            <lane id="L2418_1"/>
            <lane id="L2418_2">
                <vehicle id="F11_0" pos="5.10" speed="0.00"/>
            </lane>
        </edge>
        <edge id="L2423">
            <lane id="L2423_0">
                <vehicle id="F05_0" pos="5.10" speed="0.00"/>
            </lane>
            <lane id="L2423_1"/>
        </edge>
    </timestep>
    <timestep time="1.00">
        <edge id="L0102">
            <lane id="L0102_0">
                <vehicle id="F02_0" pos="7.14" speed="2.04"/>
            </lane>
            <lane id="L0102_1"/>
        </edge>
        <edge id="L0107">
            <lane id="L0107_0"/>
            <lane id="L0107_1"/>
            <lane id="L0107_2">
                <vehicle id="F01_0" pos="7.68" speed="2.58"/>
            </lane>
        </edge>
        <edge id="L0208">
            <lane id="L0208_0">
                <vehicle id="F06_0" pos="6.46" speed="1.36"/>
            </lane>
        </edge>
        <edge id="L0309">
            <lane id="L0309_0"/>
            <lane id="L0309_1">
                <vehicle id="F07_0" pos="6.91" speed="1.81"/>
            </lane>
            <lane id="L0309_2"/>
        </edge>
        <edge id="L0511">
            <lane id="L0511_0">
                <vehicle id="F09_0" pos="6.54" speed="1.44"/>
            </lane>
        </edge>
        <edge id="L0612">
            <lane id="L0612_0"/>
            <lane id="L0612_1">
                <vehicle id="F13_0" pos="5.10" speed="0.00"/>
            </lane>
            <lane id="L0612_2">
                <vehicle id="F10_0" pos="6.67" speed="1.57"/>
            </lane>
        </edge>
        <edge id="L1211">
            <lane id="L1211_0">
                <vehicle id="F03_0" pos="6.52" speed="1.42"/>
            </lane>
            <lane id="L1211_1"/>
        </edge>
        <edge id="L1314">
            <lane id="L1314_0"/>
            <lane id="L1314_1">
                <vehicle id="F04_0" pos="6.43" speed="1.33"/>
            </lane>
        </edge>
        <edge id="L1913">
            <lane id="L1913_0">
                <vehicle id="F00_0" pos="7.27" speed="2.17"/>
            </lane>
            <lane id="L1913_1">
                <vehicle id="F12_0" pos="6.96" speed="1.86"/>
            </lane>
            <lane id="L1913_2"/>
        </edge>
        <edge id="L2115">
            <lane id="L2115_0">
                <vehicle id="F075_0" pos="6.80" speed="1.70"/>
            </lane>
            <lane id="L2115_1"/>
            <lane id="L2115_2"/>
        </edge>
        <edge id="L2216">
            <lane id="L2216_0">
                <vehicle id="F08_0" pos="7.28" speed="2.18"/>
            </lane>
        </edge>
        <edge id="L2418">
            <lane id="L2418_0"/>
            <lane id="L2418_1"/>
            <lane id="L2418_2">
                <vehicle id="F11_0" pos="6.46" speed="1.36"/>
            </lane>
        </edge>
        <edge id="L2423">
            <lane id="L2423_0">
                <vehicle id="F05_0" pos="6.53" speed="1.43"/>
            </lane>
            <lane id="L2423_1"/>
        </edge>
    </timestep>
    <timestep time="2.00">
        <edge id="L0102">
            <lane id="L0102_0">
                <vehicle id="F02_0" pos="10.90" speed="3.76"/>
            </lane>
            <lane id="L0102_1"/>
        </edge>
        <edge id="L0107">
            <lane id="L0107_0"/>
            <lane id="L0107_1"/>
            <lane id="L0107_2">
                <vehicle id="F01_0" pos="12.15" speed="4.48"/>
            </lane>
        </edge>
        <edge id="L0208">
            <lane id="L0208_0">
                <vehicle id="F06_0" pos="9.49" speed="3.04"/>
            </lane>
        </edge>
        <edge id="L0309">
            <lane id="L0309_0"/>
            <lane id="L0309_1">
                <vehicle id="F07_0" pos="11.27" speed="4.36"/>
            </lane>
            <lane id="L0309_2"/>
        </edge>
        <edge id="L0511">
            <lane id="L0511_0">
                <vehicle id="F09_0" pos="9.42" speed="2.88"/>
            </lane>
        </edge>
        <edge id="L0612">
            <lane id="L0612_0"/>
            <lane id="L0612_1">
                <vehicle id="F13_0" pos="6.59" speed="1.49"/>
            </lane>
            <lane id="L0612_2">
                <vehicle id="F10_0" pos="10.52" speed="3.85"/>
            </lane>
        </edge>
        <edge id="L1211">
            <lane id="L1211_0">
                <vehicle id="F03_0" pos="10.46" speed="3.94"/>
            </lane>
            <lane id="L1211_1"/>
        </edge>
        <edge id="L1314">
            <lane id="L1314_0"/>
            <lane id="L1314_1">
                <vehicle id="F04_0" pos="10.29" speed="3.86"/>
            </lane>
        </edge>
        <edge id="L1913">
            <lane id="L1913_0">
                <vehicle id="F00_0" pos="11.86" speed="4.59"/>
            </lane>
            <lane id="L1913_1">
                <vehicle id="F12_0" pos="10.31" speed="3.35"/>
            </lane>
            <lane id="L1913_2"/>
        </edge>
        <edge id="L2115">
            <lane id="L2115_0">
                <vehicle id="F075_0" pos="9.81" speed="3.01"/>
            </lane>
            <lane id="L2115_1"/>
            <lane id="L2115_2"/>
        </edge>
        <edge id="L2216">
            <lane id="L2216_0">
                <vehicle id="F08_0" pos="11.78" speed="4.50"/>
            </lane>
        </edge>
        <edge id="L2418">
            <lane id="L2418_0"/>
            <lane id="L2418_1"/>
            <lane id="L2418_2">
                <vehicle id="F11_0" pos="10.41" speed="3.95"/>
            </lane>
        </edge>
        <edge id="L2423">
            <lane id="L2423_0">
                <vehicle id="F05_0" pos="10.10" speed="3.58"/>
            </lane>
            <lane id="L2423_1"/>
        </edge>
    </timestep>
    <timestep time="3.00">
        <edge id="L0102">
            <lane id="L0102_0">
                <vehicle id="F02_0" pos="16.99" speed="6.09"/>
            </lane>
            <lane id="L0102_1"/>
        </edge>
        <edge id="L0107">
            <lane id="L0107_0">
                <vehicle id="F01_1" pos="5.10" speed="0.00"/>
            </lane>
            <lane id="L0107_1"/>
            <lane id="L0107_2">
                <vehicle id="F01_0" pos="19.12" speed="6.97"/>
            </lane>
        </edge>
        <edge id="L0208">
            <lane id="L0208_0">
                <vehicle id="F06_0" pos="14.04" speed="4.55"/>
            </lane>
        </edge>
        <edge id="L0309">
            <lane id="L0309_0"/>
            <lane id="L0309_1">
                <vehicle id="F07_0" pos="18.12" speed="6.85"/>
            </lane>
            <lane id="L0309_2"/>
        </edge>
        <edge id="L0511">
            <lane id="L0511_0">
                <vehicle id="F09_0" pos="14.36" speed="4.93"/>
            </lane>
        </edge>
        <edge id="L0612">
            <lane id="L0612_0"/>
            <lane id="L0612_1">
                <vehicle id="F13_0" pos="9.91" speed="3.32"/>
            </lane>
            <lane id="L0612_2">
                <vehicle id="F10_0" pos="16.82" speed="6.30"/>
            </lane>
        </edge>
        <edge id="L1211">
            <lane id="L1211_0">
                <vehicle id="F03_0" pos="16.33" speed="5.87"/>
            </lane>
            <lane id="L1211_1"/>
        </edge>
        <edge id="L1314">
            <lane id="L1314_0"/>
            <lane id="L1314_1">
                <vehicle id="F04_0" pos="16.40" speed="6.10"/>
            </lane>
        </edge>
        <edge id="L1913">
            <lane id="L1913_0">
                <vehicle id="rAmb_0" pos="5.10" speed="0.00"/>
                <vehicle id="F00_0" pos="18.85" speed="6.99"/>
            </lane>
            <lane id="L1913_1">
                <vehicle id="F00_1" pos="5.10" speed="0.00"/>
                <vehicle id="F12_0" pos="15.19" speed="4.89"/>
            </lane>
            <lane id="L1913_2"/>
        </edge>
        <edge id="L2115">
            <lane id="L2115_0">
                <vehicle id="F075_0" pos="14.93" speed="5.12"/>
            </lane>
            <lane id="L2115_1"/>
            <lane id="L2115_2"/>
        </edge>
        <edge id="L2216">
            <lane id="L2216_0">
                <vehicle id="F08_0" pos="17.70" speed="5.92"/>
            </lane>
        </edge>
        <edge id="L2418">
            <lane id="L2418_0"/>
            <lane id="L2418_1"/>
            <lane id="L2418_2">
                <vehicle id="F11_0" pos="16.08" speed="5.67"/>
            </lane>
        </edge>
        <edge id="L2423">
            <lane id="L2423_0">
                <vehicle id="F05_0" pos="15.94" speed="5.84"/>
            </lane>
            <lane id="L2423_1"/>
        </edge>
    </timestep>
    <timestep time="4.00">
        <edge id="L0102">
            <lane id="L0102_0">
                <vehicle id="F02_0" pos="24.86" speed="7.87"/>
            </lane>
            <lane id="L0102_1"/>
        </edge>
        <edge id="L0107">
            <lane id="L0107_0">
                <vehicle id="F01_1" pos="7.01" speed="1.91"/>
            </lane>
            <lane id="L0107_1"/>
            <lane id="L0107_2">
                <vehicle id="F01_0" pos="27.41" speed="8.28"/>
            </lane>
        </edge>
        <edge id="L0208">
            <lane id="L0208_0">
                <vehicle id="F06_0" pos="20.52" speed="6.48"/>
            </lane>
        </edge>
        <edge id="L0309">
            <lane id="L0309_0"/>
            <lane id="L0309_1">
                <vehicle id="F07_0" pos="26.46" speed="8.34"/>
            </lane>
            <lane id="L0309_2"/>
        </edge>
        <edge id="L0511">
            <lane id="L0511_0">
                <vehicle id="F09_0" pos="21.09" speed="6.73"/>
            </lane>
        </edge>
        <edge id="L0612">
            <lane id="L0612_0">
                <vehicle id="F13_1" pos="5.10" speed="0.00"/>
            </lane>
            <lane id="L0612_1">
                <vehicle id="F13_0" pos="15.67" speed="5.76"/>
            </lane>
            <lane id="L0612_2">
                <vehicle id="F10_0" pos="24.94" speed="8.12"/>
            </lane>
        </edge>
        <edge id="L1211">
            <lane id="L1211_0">
                <vehicle id="F03_0" pos="23.54" speed="7.21"/>
            </lane>
            <lane id="L1211_1"/>
        </edge>
        <edge id="L1314">
            <lane id="L1314_0"/>
            <lane id="L1314_1">
                <vehicle id="F04_0" pos="23.88" speed="7.49"/>
            </lane>
        </edge>
        <edge id="L1913">
            <lane id="L1913_0">
                <vehicle id="rAmb_0" pos="7.39" speed="2.29"/>
                <vehicle id="F00_0" pos="28.15" speed="9.30"/>
            </lane>
            <lane id="L1913_1">
                <vehicle id="F00_1" pos="7.35" speed="2.25"/>
                <vehicle id="F12_0" pos="22.12" speed="6.93"/>
            </lane>
            <lane id="L1913_2"/>
        </edge>
        <edge id="L2115">
            <lane id="L2115_0">
                <vehicle id="F075_0" pos="21.54" speed="6.61"/>
            </lane>
            <lane id="L2115_1"/>
            <lane id="L2115_2"/>
        </edge>
        <edge id="L2216">
            <lane id="L2216_0">
                <vehicle id="F08_0" pos="26.22" speed="8.52"/>
            </lane>
        </edge>
        <edge id="L2418">
            <lane id="L2418_0"/>
            <lane id="L2418_1"/>
            <lane id="L2418_2">
                <vehicle id="F11_0" pos="23.88" speed="7.80"/>
            </lane>
        </edge>
        <edge id="L2423">
            <lane id="L2423_0">
                <vehicle id="F05_0" pos="23.70" speed="7.76"/>
            </lane>
            <lane id="L2423_1"/>
        </edge>
    </timestep>
    <timestep time="5.00">
        <edge id="L0102">
            <lane id="L0102_0">
                <vehicle id="F02_0" pos="35.05" speed="10.19"/>
            </lane>
            <lane id="L0102_1"/>
        </edge>
        <edge id="L0107">
            <lane id="L0107_0">
                <vehicle id="F01_1" pos="10.78" speed="3.77"/>
            </lane>
            <lane id="L0107_1"/>
            <lane id="L0107_2">
                <vehicle id="F01_0" pos="37.60" speed="10.19"/>
            </lane>
        </edge>
        <edge id="L0208">
            <lane id="L0208_0">
                <vehicle id="F06_0" pos="28.58" speed="8.05"/>
            </lane>
        </edge>
        <edge id="L0309">
            <lane id="L0309_0"/>
            <lane id="L0309_1">
                <vehicle id="F07_0" pos="36.42" speed="9.96"/>
            </lane>
            <lane id="L0309_2"/>
        </edge>
        <edge id="L0511">
            <lane id="L0511_0">
                <vehicle id="F09_0" pos="29.36" speed="8.27"/>
            </lane>
        </edge>
        <edge id="L0612">
            <lane id="L0612_0">
                <vehicle id="F13_1" pos="7.51" speed="2.41"/>
            </lane>
            <lane id="L0612_1">
                <vehicle id="F13_0" pos="24.01" speed="8.34"/>
            </lane>
            <lane id="L0612_2">
                <vehicle id="F10_0" pos="34.78" speed="9.84"/>
            </lane>
        </edge>
        <edge id="L1211">
            <lane id="L1211_0">
                <vehicle id="F03_0" pos="32.51" speed="8.97"/>
            </lane>
            <lane id="L1211_1"/>
        </edge>
        <edge id="L1314">
            <lane id="L1314_0"/>
            <lane id="L1314_1">
                <vehicle id="F04_0" pos="32.73" speed="8.85"/>
            </lane>
        </edge>
        <edge id="L1913">
            <lane id="L1913_0">
                <vehicle id="rAmb_0" pos="12.22" speed="4.82"/>
                <vehicle id="F00_0" pos="38.79" speed="10.63"/>
            </lane>
            <lane id="L1913_1">
                <vehicle id="F00_1" pos="12.15" speed="4.80"/>
                <vehicle id="F12_0" pos="31.46" speed="9.35"/>
            </lane>
            <lane id="L1913_2"/>
        </edge>
        <edge id="L2115">
            <lane id="L2115_0">
                <vehicle id="F075_0" pos="29.69" speed="8.15"/>
            </lane>
            <lane id="L2115_1"/>
            <lane id="L2115_2"/>
        </edge>
        <edge id="L2216">
            <lane id="L2216_0">
                <vehicle id="F08_0" pos="36.79" speed="10.57"/>
            </lane>
        </edge>
        <edge id="L2418">
            <lane id="L2418_0"/>
            <lane id="L2418_1"/>
            <lane id="L2418_2">
                <vehicle id="F11_0" pos="33.29" speed="9.41"/>
            </lane>
        </edge>
        <edge id="L2423">
            <lane id="L2423_0">
                <vehicle id="F05_0" pos="33.90" speed="10.20"/>
            </lane>
            <lane id="L2423_1"/>
        </edge>
    </timestep>
    <timestep time="6.00">
        <edge id="L0102">
            <lane id="L0102_0">
                <vehicle id="F02_0" pos="47.76" speed="12.71"/>
            </lane>
            <lane id="L0102_1"/>
        </edge>
        <edge id="L0107">
            <lane id="L0107_0">
                <vehicle id="F01_1" pos="16.47" speed="5.69"/>
            </lane>
            <lane id="L0107_1">
                <vehicle id="F01_2" pos="5.10" speed="0.00"/>
            </lane>
            <lane id="L0107_2">
                <vehicle id="F01_0" pos="50.17" speed="12.57"/>
            </lane>
        </edge>
        <edge id="L0208">
            <lane id="L0208_0">
                <vehicle id="F06_0" pos="38.85" speed="10.27"/>
            </lane>
        </edge>
        <edge id="L0309">
            <lane id="L0309_0"/>
            <lane id="L0309_1">
                <vehicle id="F07_0" pos="48.18" speed="11.76"/>
            </lane>
            <lane id="L0309_2"/>
        </edge>
        <edge id="L0511">
            <lane id="L0511_0">
                <vehicle id="F09_0" pos="39.18" speed="9.82"/>
            </lane>
        </edge>
        <edge id="L0612">
            <lane id="L0612_0">
                <vehicle id="F13_1" pos="11.84" speed="4.33"/>
            </lane>
            <lane id="L0612_1">
                <vehicle id="F13_0" pos="34.25" speed="10.24"/>
            </lane>
            <lane id="L0612_2">
                <vehicle id="F10_0" pos="47.06" speed="12.28"/>
            </lane>
        </edge>
        <edge id="L1211">
            <lane id="L1211_0">
                <vehicle id="F03_0" pos="42.87" speed="10.36"/>
            </lane>
            <lane id="L1211_1"/>
        </edge>
        <edge id="L1314">
            <lane id="L1314_0"/>
            <lane id="L1314_1">
                <vehicle id="F04_0" pos="42.98" speed="10.25"/>
            </lane>
        </edge>
        <edge id="L1913">
            <lane id="L1913_0">
                <vehicle id="rAmb_0" pos="19.30" speed="7.09"/>
                <vehicle id="F00_0" pos="51.86" speed="13.08"/>
            </lane>
            <lane id="L1913_1">
                <vehicle id="F00_2" pos="5.10" speed="0.00"/>
                <vehicle id="F00_1" pos="18.26" speed="6.11"/>
                <vehicle id="F12_0" pos="43.30" speed="11.84"/>
            </lane>
            <lane id="L1913_2">
                <vehicle id="F00_3" pos="5.10" speed="0.00"/>
            </lane>
        </edge>
        <edge id="L2115">
            <lane id="L2115_0">
                <vehicle id="F075_0" pos="39.72" speed="10.03"/>
            </lane>
            <lane id="L2115_1"/>
            <lane id="L2115_2"/>
        </edge>
        <edge id="L2216">
            <lane id="L2216_0">
                <vehicle id="F08_0" pos="47.82" speed="11.04"/>
            </lane>
        </edge>
        <edge id="L2418">
            <lane id="L2418_0"/>
            <lane id="L2418_1"/>
            <lane id="L2418_2">
                <vehicle id="F11_0" pos="44.74" speed="11.46"/>
            </lane>
        </edge>
        <edge id="L2423">
            <lane id="L2423_0">
                <vehicle id="F05_0" pos="46.51" speed="12.61"/>
            </lane>
            <lane id="L2423_1"/>
        </edge>
    </timestep>
    <timestep time="7.00">
        <edge id="L0102">
            <lane id="L0102_0"/>
            <lane id="L0102_1">
                <vehicle id="F02_0" pos="62.86" speed="15.10"/>
            </lane>
        </edge>
        <edge id="L0107">
            <lane id="L0107_0">
                <vehicle id="F01_1" pos="24.32" speed="7.86"/>
            </lane>
            <lane id="L0107_1">
                <vehicle id="F01_2" pos="7.19" speed="2.09"/>
            </lane>
            <lane id="L0107_2">
                <vehicle id="F01_0" pos="65.03" speed="14.87"/>
            </lane>
        </edge>
        <edge id="L0208">
            <lane id="L0208_0">
                <vehicle id="F06_0" pos="49.45" speed="10.60"/>
            </lane>
        </edge>
        <edge id="L0309">
            <lane id="L0309_0"/>
            <lane id="L0309_1">
                <vehicle id="F07_0" pos="61.27" speed="13.08"/>
            </lane>
            <lane id="L0309_2"/>
        </edge>
        <edge id="L0511">
            <lane id="L0511_0">
                <vehicle id="F09_0" pos="49.60" speed="10.42"/>
            </lane>
        </edge>
        <edge id="L0612">
            <lane id="L0612_0">
                <vehicle id="F13_1" pos="17.85" speed="6.01"/>
            </lane>
            <lane id="L0612_1">
                <vehicle id="F13_0" pos="45.88" speed="11.63"/>
            </lane>
            <lane id="L0612_2">
                <vehicle id="F10_0" pos="61.39" speed="14.33"/>
            </lane>
        </edge>
        <edge id="L1211">
            <lane id="L1211_0">
                <vehicle id="F03_0" pos="54.81" speed="11.94"/>
            </lane>
            <lane id="L1211_1"/>
        </edge>
        <edge id="L1314">
            <lane id="L1314_0"/>
            <lane id="L1314_1">
                <vehicle id="F04_0" pos="55.45" speed="12.47"/>
            </lane>
        </edge>
        <edge id="L1913">
            <lane id="L1913_0">
                <vehicle id="rAmb_0" pos="28.88" speed="9.58"/>
                <vehicle id="F00_0" pos="67.29" speed="15.43"/>
            </lane>
            <lane id="L1913_1">
                <vehicle id="F00_2" pos="6.50" speed="1.40"/>
                <vehicle id="F00_1" pos="26.24" speed="7.98"/>
                <vehicle id="F12_0" pos="56.49" speed="13.18"/>
            </lane>
            <lane id="L1913_2">
                <vehicle id="F00_3" pos="6.49" speed="1.39"/>
            </lane>
        </edge>
        <edge id="L2115">
            <lane id="L2115_0">
                <vehicle id="F075_0" pos="51.81" speed="12.09"/>
            </lane>
            <lane id="L2115_1"/>
            <lane id="L2115_2"/>
        </edge>
        <edge id="L2216">
            <lane id="L2216_0">
                <vehicle id="F08_0" pos="58.60" speed="10.78"/>
            </lane>
        </edge>
        <edge id="L2418">
            <lane id="L2418_0"/>
            <lane id="L2418_1"/>
            <lane id="L2418_2">
                <vehicle id="F11_0" pos="57.93" speed="13.19"/>
            </lane>
        </edge>
        <edge id="L2423">
            <lane id="L2423_0">
                <vehicle id="F05_0" pos="60.58" speed="14.07"/>
            </lane>
            <lane id="L2423_1"/>
        </edge>
    </timestep>
    <timestep time="8.00">
        <edge id="L0102">
            <lane id="L0102_0"/>
            <lane id="L0102_1">
                <vehicle id="F02_0" pos="77.88" speed="15.02"/>
            </lane>
        </edge>
        <edge id="L0107">
            <lane id="L0107_0">
                <vehicle id="F01_1" pos="34.10" speed="9.78"/>
            </lane>
            <lane id="L0107_1">
                <vehicle id="F01_2" pos="10.84" speed="3.64"/>
            </lane>
            <lane id="L0107_2">
                <vehicle id="F01_0" pos="82.15" speed="17.11"/>
            </lane>
        </edge>
        <edge id="L0208">
            <lane id="L0208_0">
                <vehicle id="F06_0" pos="60.39" speed="10.94"/>
            </lane>
        </edge>
        <edge id="L0309">
            <lane id="L0309_0"/>
            <lane id="L0309_1">
                <vehicle id="F07_0" pos="75.86" speed="14.59"/>
            </lane>
            <lane id="L0309_2"/>
        </edge>
        <edge id="L0511">
            <lane id="L0511_0">
                <vehicle id="F09_0" pos="60.05" speed="10.45"/>
            </lane>
        </edge>
        <edge id="L0612">
            <lane id="L0612_0">
                <vehicle id="F13_1" pos="25.68" speed="7.83"/>
                <vehicle id="F13_0" pos="59.60" speed="13.72"/>
            </lane>
            <lane id="L0612_1"/>
            <lane id="L0612_2">
                <vehicle id="F13_2" pos="5.10" speed="0.00"/>
                <vehicle id="F10_0" pos="77.72" speed="16.34"/>
            </lane>
        </edge>
        <edge id="L1211">
            <lane id="L1211_0">
                <vehicle id="F03_0" pos="68.58" speed="13.77"/>
            </lane>
            <lane id="L1211_1"/>
        </edge>
        <edge id="L1314">
            <lane id="L1314_0"/>
            <lane id="L1314_1">
                <vehicle id="F04_0" pos="69.85" speed="14.40"/>
            </lane>
        </edge>
        <edge id="L1913">
            <lane id="L1913_0">
                <vehicle id="F00_4" pos="5.10" speed="0.00"/>
                <vehicle id="rAmb_0" pos="41.03" speed="12.15"/>
                <vehicle id="F12_0" pos="67.84" speed="11.35"/>
                <vehicle id="F00_0" pos="84.77" speed="17.48"/>
            </lane>
            <lane id="L1913_1">
                <vehicle id="F00_2" pos="9.55" speed="3.05"/>
                <vehicle id="F00_1" pos="36.16" speed="9.92"/>
            </lane>
            <lane id="L1913_2">
                <vehicle id="F00_3" pos="10.17" speed="3.69"/>
            </lane>
        </edge>
        <edge id="L2115">
            <lane id="L2115_0">
                <vehicle id="F075_0" pos="66.05" speed="14.24"/>
            </lane>
            <lane id="L2115_1"/>
            <lane id="L2115_2"/>
        </edge>
        <edge id="L2216">
            <lane id="L2216_0">
                <vehicle id="F08_0" pos="68.95" speed="10.35"/>
            </lane>
        </edge>
        <edge id="L2418">
            <lane id="L2418_0"/>
            <lane id="L2418_1"/>
            <lane id="L2418_2">
                <vehicle id="F11_0" pos="72.59" speed="14.66"/>
            </lane>
        </edge>
        <edge id="L2423">
            <lane id="L2423_0">
                <vehicle id="F05_0" pos="75.11" speed="14.53"/>
            </lane>
            <lane id="L2423_1"/>
        </edge>
    </timestep>
    <timestep time="9.00">
        <edge id="L0102">
            <lane id="L0102_0"/>
            <lane id="L0102_1">
                <vehicle id="F02_0" pos="92.78" speed="14.90"/>
            </lane>
        </edge>
        <edge id="L0107">
            <lane id="L0107_0">
                <vehicle id="F01_1" pos="45.34" speed="11.24"/>
            </lane>
            <lane id="L0107_1">
                <vehicle id="F01_3" pos="5.10" speed="0.00"/>
                <vehicle id="F01_2" pos="16.26" speed="5.42"/>
            </lane>
            <lane id="L0107_2">
                <vehicle id="F01_0" pos="101.37" speed="19.22"/>
            </lane>
        </edge>
        <edge id="L0208">
            <lane id="L0208_0">
                <vehicle id="F06_0" pos="70.38" speed="10.00"/>
            </lane>
        </edge>
        <edge id="L0309">
            <lane id="L0309_0"/>
            <lane id="L0309_1">
                <vehicle id="F07_0" pos="92.33" speed="16.48"/>
            </lane>
            <lane id="L0309_2"/>
        </edge>
        <edge id="L0511">
            <lane id="L0511_0">
                <vehicle id="F09_0" pos="71.19" speed="11.14"/>
            </lane>
        </edge>
        <edge id="L0612">
            <lane id="L0612_0">
                <vehicle id="F13_1" pos="35.89" speed="10.20"/>
                <vehicle id="F13_0" pos="74.85" speed="15.25"/>
            </lane>
            <lane id="L0612_1"/>
            <lane id="L0612_2">
                <vehicle id="F13_2" pos="6.64" speed="1.54"/>
                <vehicle id="F10_0" pos="95.38" speed="17.66"/>
            </lane>
        </edge>
        <edge id="L1211">
            <lane id="L1211_0">
                <vehicle id="F03_0" pos="83.10" speed="14.52"/>
            </lane>
            <lane id="L1211_1"/>
        </edge>
        <edge id="L1314">
            <lane id="L1314_0"/>
            <lane id="L1314_1">
                <vehicle id="F04_0" pos="84.70" speed="14.85"/>
            </lane>
        </edge>
        <edge id="L1913">
            <lane id="L1913_0">