<?xml version="1.0"?>

<!-- generated on Wed Apr 17 13:51:21 2013 by SUMO sumo Version 0.16.0
<?xml version="1.0" encoding="UTF-8"?>

<configuration xmlns:xsi="http://www.w3.org/2001/XMLSchema-instance" xsi:noNamespaceSchemaLocation="http://sumo.sf.net/xsd/sumoConfiguration.xsd">

    <input>
        <net-file value="../grid6_4.net.xml"/>
        <route-files value="grid6_4.rou.xml"/>
    </input>

    <output>
        <netstate-dump value="netstate6_4.xml"/>
    </output>

    <time>
        <begin value="0"/>
        <end value="200"/>
    </time>

    <processing>
        <time-to-teleport value="-1"/>
    </processing>

</configuration>
-->

<sumo-netstate>
    <timestep time="0.00">
        <edge id="L0102">
            <lane id="L0102_0">
                <vehicle id="F02_0" pos="5.10" speed="0.00"/>
            </lane>
            <lane id="L0102_1"/>
        </edge>
        <edge id="L0107">
            <lane id="L0107_0">
                <vehicle id="F01_0" pos="5.10" speed="0.00"/>
            </lane>
            <lane id="L0107_1"/>
            <lane id="L0107_2"/>
        </edge>
        <edge id="L0208">
            <lane id="L0208_0">
                <vehicle id="F06_0" pos="5.10" speed="0.00"/>
            </lane>
        </edge>
        <edge id="L0309">
            <lane id="L0309_0"/>
            <lane id="L0309_1">
                <vehicle id="F07_0" pos="5.10" speed="0.00"/>
            </lane>
        </edge>
        <edge id="L0511">
            <lane id="L0511_0">
                <vehicle id="F09_0" pos="5.10" speed="0.00"/>
            </lane>
        </edge>
        <edge id="L0612">
            <lane id="L0612_0">
                <vehicle id="F10_0" pos="5.10" speed="0.00"/>
            </lane>
            <lane id="L0612_1">
                <vehicle id="F13_0" pos="5.10" speed="0.00"/>
            </lane>
            <lane id="L0612_2"/>
        </edge>
        <edge id="L1211">
            <lane id="L1211_0">
                <vehicle id="F03_0" pos="5.10" speed="0.00"/>
            </lane>
            <lane id="L1211_1"/>
        </edge>
        <edge id="L1314">
            <lane id="L1314_0">
                <vehicle id="F04_0" pos="5.10" speed="0.00"/>
            </lane>
            <lane id="L1314_1"/>
        </edge>
        <edge id="L1913">
            <lane id="L1913_0">
                <vehicle id="rAmb_0" pos="5.10" speed="0.00"/>
            </lane>
            <lane id="L1913_1">
                <vehicle id="F00_0" pos="5.10" speed="0.00"/>
            </lane>
            <lane id="L1913_2">
                <vehicle id="F12_0" pos="5.10" speed="0.00"/>
            </lane>
        </edge>
        <edge id="L2115">
            <lane id="L2115_0"/>
            <lane id="L2115_1">
                <vehicle id="F075_0" pos="5.10" speed="0.00"/>
            </lane>
        </edge>
        <edge id="L2216">
            <lane id="L2216_0">
                <vehicle id="F08_0" pos="5.10" speed="0.00"/>
            </lane>
        </edge>
        <edge id="L2418">
            <lane id="L2418_0"/>
            <lane id="L2418_1"/>
            <lane id="L2418_2">
                <vehicle id="F11_0" pos="5.10" speed="0.00"/>
            </lane>
        </edge>
        <edge id="L2423">
            <lane id="L2423_0"/>
            <lane id="L2423_1">
                <vehicle id="F05_0" pos="5.10" speed="0.00"/>
            </lane>
        </edge>
    </timestep>
    <timestep time="1.00">
        <edge id="L0102">
            <lane id="L0102_0">
                <vehicle id="F02_0" pos="6.46" speed="1.36"/>
            </lane>
            <lane id="L0102_1"/>
        </edge>
        <edge id="L0107">
            <lane id="L0107_0">
                <vehicle id="F01_0" pos="7.14" speed="2.04"/>
            </lane>
            <lane id="L0107_1"/>
            <lane id="L0107_2"/>
        </edge>
        <edge id="L0208">
            <lane id="L0208_0">
                <vehicle id="F06_0" pos="6.54" speed="1.44"/>
            </lane>
        </edge>
        <edge id="L0309">
            <lane id="L0309_0"/>
            <lane id="L0309_1">
                <vehicle id="F07_0" pos="7.68" speed="2.58"/>
            </lane>
        </edge>
        <edge id="L0511">
            <lane id="L0511_0">
                <vehicle id="F09_0" pos="7.28" speed="2.18"/>
            </lane>
        </edge>
        <edge id="L0612">
            <lane id="L0612_0">
                <vehicle id="F10_0" pos="6.91" speed="1.81"/>
            </lane>
            <lane id="L0612_1">
                <vehicle id="F13_0" pos="6.67" speed="1.57"/>
            </lane>
            <lane id="L0612_2"/>
        </edge>
        <edge id="L1211">
            <lane id="L1211_0">
                <vehicle id="F03_0" pos="6.52" speed="1.42"/>
            </lane>
            <lane id="L1211_1"/>
        </edge>
        <edge id="L1314">
            <lane id="L1314_0">
                <vehicle id="F04_0" pos="6.43" speed="1.33"/>
            </lane>
            <lane id="L1314_1"/>
        </edge>
        <edge id="L1913">
            <lane id="L1913_0">
                <vehicle id="rAmb_0" pos="7.27" speed="2.17"/>
            </lane>
            <lane id="L1913_1">
                <vehicle id="F00_0" pos="6.96" speed="1.86"/>
            </lane>
            <lane id="L1913_2">
                <vehicle id="F12_0" pos="6.80" speed="1.70"/>
            </lane>
        </edge>
        <edge id="L2115">
            <lane id="L2115_0"/>
            <lane id="L2115_1">
                <vehicle id="F075_0" pos="6.46" speed="1.36"/>
            </lane>
        </edge>
        <edge id="L2216">
            <lane id="L2216_0">
                <vehicle id="F08_0" pos="7.60" speed="2.50"/>
            </lane>
        </edge>
        <edge id="L2418">
            <lane id="L2418_0"/>
            <lane id="L2418_1"/>
            <lane id="L2418_2">
                <vehicle id="F11_0" pos="6.53" speed="1.43"/>
            </lane>
        </edge>
        <edge id="L2423">
            <lane id="L2423_0"/>
            <lane id="L2423_1">
                <vehicle id="F05_0" pos="7.31" speed="2.21"/>
            </lane>
        </edge>
    </timestep>
    <timestep time="2.00">
        <edge id="L0102">
            <lane id="L0102_0">
                <vehicle id="F02_0" pos="9.49" speed="3.04"/>
            </lane>
            <lane id="L0102_1"/>
        </edge>
        <edge id="L0107">
            <lane id="L0107_0">
                <vehicle id="F01_0" pos="10.90" speed="3.76"/>
            </lane>
            <lane id="L0107_1"/>
            <lane id="L0107_2"/>
        </edge>
        <edge id="L0208">
            <lane id="L0208_0">
                <vehicle id="F06_0" pos="9.42" speed="2.88"/>
            </lane>
        </edge>
        <edge id="L0309">
            <lane id="L0309_0"/>
            <lane id="L0309_1">
                <vehicle id="F07_0" pos="12.15" speed="4.48"/>
            </lane>
        </edge>
        <edge id="L0511">
            <lane id="L0511_0">
                <vehicle id="F09_0" pos="11.78" speed="4.50"/>
            </lane>
        </edge>
        <edge id="L0612">
            <lane id="L0612_0">
                <vehicle id="F10_0" pos="11.27" speed="4.36"/>
            </lane>
            <lane id="L0612_1">
                <vehicle id="F13_0" pos="10.52" speed="3.85"/>
            </lane>
            <lane id="L0612_2"/>
        </edge>
        <edge id="L1211">
            <lane id="L1211_0">
                <vehicle id="F03_0" pos="10.46" speed="3.94"/>
            </lane>
            <lane id="L1211_1"/>
        </edge>
        <edge id="L1314">
            <lane id="L1314_0">
                <vehicle id="F04_0" pos="10.29" speed="3.86"/>
            </lane>
            <lane id="L1314_1"/>
        </edge>
        <edge id="L1913">
            <lane id="L1913_0">
                <vehicle id="rAmb_0" pos="11.86" speed="4.59"/>
            </lane>
            <lane id="L1913_1">
                <vehicle id="F00_0" pos="10.31" speed="3.35"/>
            </lane>
            <lane id="L1913_2">
                <vehicle id="F12_0" pos="9.81" speed="3.01"/>
            </lane>
        </edge>
        <edge id="L2115">
            <lane id="L2115_0"/>
            <lane id="L2115_1">
                <vehicle id="F075_0" pos="10.41" speed="3.95"/>
            </lane>
        </edge>
        <edge id="L2216">
            <lane id="L2216_0">
                <vehicle id="F08_0" pos="11.71" speed="4.11"/>
            </lane>
        </edge>
        <edge id="L2418">
            <lane id="L2418_0"/>
            <lane id="L2418_1"/>
            <lane id="L2418_2">
                <vehicle id="F11_0" pos="10.10" speed="3.58"/>
            </lane>
        </edge>
        <edge id="L2423">
            <lane id="L2423_0"/>
            <lane id="L2423_1">
                <vehicle id="F05_0" pos="11.00" speed="3.70"/>
            </lane>
        </edge>
    </timestep>
    <timestep time="3.00">
        <edge id="L0102">
            <lane id="L0102_0">
                <vehicle id="F02_0" pos="14.87" speed="5.38"/>
            </lane>
            <lane id="L0102_1"/>
        </edge>
        <edge id="L0107">
            <lane id="L0107_0">
                <vehicle id="F01_1" pos="5.10" speed="0.00"/>
                <vehicle id="F01_0" pos="17.15" speed="6.25"/>
            </lane>
            <lane id="L0107_1"/>
            <lane id="L0107_2"/>
        </edge>
        <edge id="L0208">
            <lane id="L0208_0">
                <vehicle id="F06_0" pos="13.82" speed="4.39"/>
            </lane>
        </edge>
        <edge id="L0309">
            <lane id="L0309_0"/>
            <lane id="L0309_1">
                <vehicle id="F07_0" pos="19.12" speed="6.97"/>
            </lane>
        </edge>
        <edge id="L0511">
            <lane id="L0511_0">
                <vehicle id="F09_0" pos="18.32" speed="6.55"/>
            </lane>
        </edge>
        <edge id="L0612">
            <lane id="L0612_0">
                <vehicle id="F10_0" pos="18.09" speed="6.81"/>
            </lane>
            <lane id="L0612_1">
                <vehicle id="F13_0" pos="16.30" speed="5.78"/>
            </lane>
            <lane id="L0612_2"/>
        </edge>
        <edge id="L1211">
            <lane id="L1211_0">
                <vehicle id="F03_0" pos="16.64" speed="6.18"/>
            </lane>
            <lane id="L1211_1"/>
        </edge>
        <edge id="L1314">
            <lane id="L1314_0">
                <vehicle id="F04_0" pos="16.56" speed="6.27"/>
            </lane>
            <lane id="L1314_1"/>
        </edge>
        <edge id="L1913">
            <lane id="L1913_0">
                <vehicle id="rAmb_0" pos="17.99" speed="6.13"/>
            </lane>
            <lane id="L1913_1">
                <vehicle id="F00_1" pos="5.10" speed="0.00"/>
                <vehicle id="F00_0" pos="15.76" speed="5.45"/>
            </lane>
            <lane id="L1913_2">
                <vehicle id="F12_1" pos="5.10" speed="0.00"/>
                <vehicle id="F12_0" pos="14.54" speed="4.73"/>
            </lane>
        </edge>
        <edge id="L2115">
            <lane id="L2115_0"/>
            <lane id="L2115_1">
                <vehicle id="F075_0" pos="16.62" speed="6.21"/>
            </lane>
        </edge>
        <edge id="L2216">
            <lane id="L2216_0">
                <vehicle id="F08_0" pos="17.24" speed="5.54"/>
            </lane>
        </edge>
        <edge id="L2418">
            <lane id="L2418_0"/>
            <lane id="L2418_1"/>
            <lane id="L2418_2">
                <vehicle id="F11_0" pos="15.50" speed="5.40"/>
            </lane>
        </edge>
        <edge id="L2423">
            <lane id="L2423_0"/>
            <lane id="L2423_1">
                <vehicle id="F05_0" pos="16.13" speed="5.13"/>
            </lane>
        </edge>
    </timestep>
    <timestep time="4.00">
        <edge id="L0102">
            <lane id="L0102_0">
                <vehicle id="F02_0" pos="22.04" speed="7.17"/>
            </lane>
            <lane id="L0102_1"/>
        </edge>
        <edge id="L0107">
            <lane id="L0107_0">
                <vehicle id="F01_1" pos="6.87" speed="1.77"/>
                <vehicle id="F01_0" pos="25.33" speed="8.18"/>
            </lane>
            <lane id="L0107_1"/>
            <lane id="L0107_2"/>
        </edge>
        <edge id="L0208">
            <lane id="L0208_0">
                <vehicle id="F06_0" pos="20.81" speed="6.99"/>
            </lane>
        </edge>
        <edge id="L0309">
            <lane id="L0309_0"/>
            <lane id="L0309_1">
                <vehicle id="F07_0" pos="27.40" speed="8.28"/>
            </lane>
        </edge>
        <edge id="L0511">
            <lane id="L0511_0">
                <vehicle id="F09_0" pos="26.77" speed="8.44"/>
            </lane>
        </edge>
        <edge id="L0612">
            <lane id="L0612_0">
                <vehicle id="F10_0" pos="26.38" speed="8.30"/>
            </lane>
            <lane id="L0612_1">
                <vehicle id="F13_0" pos="23.90" speed="7.60"/>
            </lane>
            <lane id="L0612_2"/>
        </edge>
        <edge id="L1211">
            <lane id="L1211_0">
                <vehicle id="F03_0" pos="24.16" speed="7.52"/>
            </lane>
            <lane id="L1211_1"/>
        </edge>
        <edge id="L1314">
            <lane id="L1314_0">
                <vehicle id="F04_0" pos="24.21" speed="7.65"/>
            </lane>
            <lane id="L1314_1"/>
        </edge>
        <edge id="L1913">
            <lane id="L1913_0">
                <vehicle id="rAmb_0" pos="26.42" speed="8.43"/>
            </lane>
            <lane id="L1913_1">
                <vehicle id="F00_1" pos="7.14" speed="2.04"/>
                <vehicle id="F00_0" pos="23.50" speed="7.74"/>
            </lane>
            <lane id="L1913_2">
                <vehicle id="F12_1" pos="6.32" speed="1.22"/>
                <vehicle id="F12_0" pos="21.52" speed="6.98"/>
            </lane>
        </edge>
        <edge id="L2115">
            <lane id="L2115_0"/>
            <lane id="L2115_1">
                <vehicle id="F075_0" pos="24.96" speed="8.34"/>
            </lane>
        </edge>
        <edge id="L2216">
            <lane id="L2216_0">
                <vehicle id="F08_0" pos="24.25" speed="7.00"/>
            </lane>
        </edge>
        <edge id="L2418">
            <lane id="L2418_0"/>
            <lane id="L2418_1"/>
            <lane id="L2418_2">
                <vehicle id="F11_0" pos="22.83" speed="7.32"/>
            </lane>
        </edge>
        <edge id="L2423">
            <lane id="L2423_0"/>
            <lane id="L2423_1">
                <vehicle id="F05_0" pos="23.71" speed="7.57"/>
            </lane>
        </edge>
    </timestep>
    <timestep time="5.00">
        <edge id="L0102">
            <lane id="L0102_0">
                <vehicle id="F02_0" pos="30.94" speed="8.90"/>
            </lane>
            <lane id="L0102_1"/>
        </edge>
        <edge id="L0107">
            <lane id="L0107_0">
                <vehicle id="F01_1" pos="10.01" speed="3.14"/>
                <vehicle id="F01_0" pos="35.27" speed="9.94"/>
            </lane>
            <lane id="L0107_1"/>
            <lane id="L0107_2"/>
        </edge>
        <edge id="L0208">
            <lane id="L0208_0">
                <vehicle id="F06_0" pos="29.42" speed="8.61"/>
            </lane>
        </edge>
        <edge id="L0309">
            <lane id="L0309_0"/>
            <lane id="L0309_1">
                <vehicle id="F07_0" pos="37.02" speed="9.62"/>
            </lane>
        </edge>
        <edge id="L0511">
            <lane id="L0511_0">
                <vehicle id="F09_0" pos="37.12" speed="10.36"/>
            </lane>
        </edge>
        <edge id="L0612">
            <lane id="L0612_0">
                <vehicle id="F10_0" pos="37.22" speed="10.83"/>
            </lane>
            <lane id="L0612_1">
                <vehicle id="F13_0" pos="33.92" speed="10.02"/>
            </lane>
            <lane id="L0612_2"/>
        </edge>
        <edge id="L1211">
            <lane id="L1211_0">
                <vehicle id="F03_0" pos="34.23" speed="10.07"/>
            </lane>
            <lane id="L1211_1"/>
        </edge>
        <edge id="L1314">
            <lane id="L1314_0">
                <vehicle id="F04_0" pos="33.40" speed="9.19"/>
            </lane>
            <lane id="L1314_1"/>
        </edge>
        <edge id="L1913">
            <lane id="L1913_0">
                <vehicle id="rAmb_0" pos="36.46" speed="10.04"/>
            </lane>
            <lane id="L1913_1">
                <vehicle id="F00_1" pos="7.14" speed="0.00"/>
                <vehicle id="F00_0" pos="33.69" speed="10.19"/>
            </lane>
            <lane id="L1913_2">
                <vehicle id="F12_1" pos="9.94" speed="3.63"/>
                <vehicle id="F12_0" pos="27.19" speed="5.66"/>
            </lane>
        </edge>
        <edge id="L2115">
            <lane id="L2115_0"/>
            <lane id="L2115_1">
                <vehicle id="F075_0" pos="34.81" speed="9.84"/>
            </lane>
        </edge>
        <edge id="L2216">
            <lane id="L2216_0">
                <vehicle id="F08_0" pos="33.58" speed="9.33"/>
            </lane>
        </edge>
        <edge id="L2418">
            <lane id="L2418_0"/>
            <lane id="L2418_1"/>
            <lane id="L2418_2">
                <vehicle id="F11_0" pos="32.32" speed="9.50"/>
            </lane>
        </edge>
        <edge id="L2423">
            <lane id="L2423_0"/>
            <lane id="L2423_1">
                <vehicle id="F05_0" pos="32.93" speed="9.22"/>
            </lane>
        </edge>
    </timestep>
    <timestep time="6.00">
        <edge id="L0102">
            <lane id="L0102_0">
                <vehicle id="F02_0" pos="42.27" speed="11.33"/>
            </lane>
            <lane id="L0102_1"/>
        </edge>
        <edge id="L0107">
            <lane id="L0107_0">
                <vehicle id="F01_1" pos="14.54" speed="4.53"/>
                <vehicle id="F01_0" pos="46.59" speed="11.32"/>
            </lane>
            <lane id="L0107_1">
                <vehicle id="F01_2" pos="5.10" speed="0.00"/>
            </lane>
            <lane id="L0107_2"/>
        </edge>
        <edge id="L0208">
            <lane id="L0208_0">
                <vehicle id="F06_0" pos="39.80" speed="10.38"/>
            </lane>
        </edge>
        <edge id="L0309">
            <lane id="L0309_0"/>
            <lane id="L0309_1">
                <vehicle id="F07_0" pos="49.08" speed="12.06"/>
            </lane>
        </edge>
        <edge id="L0511">
            <lane id="L0511_0">
                <vehicle id="F09_0" pos="48.08" speed="10.95"/>
            </lane>
        </edge>
        <edge id="L0612">
            <lane id="L0612_0">
                <vehicle id="F10_0" pos="50.31" speed="13.09"/>
            </lane>
            <lane id="L0612_1">
                <vehicle id="F13_0" pos="46.43" speed="12.51"/>
            </lane>
            <lane id="L0612_2"/>
        </edge>
        <edge id="L1211">
            <lane id="L1211_0">
                <vehicle id="F03_0" pos="45.61" speed="11.38"/>
            </lane>
            <lane id="L1211_1"/>
        </edge>
        <edge id="L1314">
            <lane id="L1314_0">
                <vehicle id="F04_0" pos="44.47" speed="11.07"/>
            </lane>
            <lane id="L1314_1"/>
        </edge>
        <edge id="L1913">
            <lane id="L1913_0">
                <vehicle id="F00_2" pos="5.10" speed="0.00"/>
                <vehicle id="rAmb_0" pos="48.55" speed="12.09"/>
            </lane>
            <lane id="L1913_1">
                <vehicle id="F00_1" pos="9.03" speed="1.89"/>
                <vehicle id="F12_0" pos="34.77" speed="7.58"/>
                <vehicle id="F00_0" pos="46.28" speed="12.59"/>
            </lane>
            <lane id="L1913_2">
                <vehicle id="F12_1" pos="15.50" speed="5.55"/>
            </lane>
        </edge>
        <edge id="L2115">
            <lane id="L2115_0"/>
            <lane id="L2115_1">
                <vehicle id="F075_0" pos="46.70" speed="11.89"/>
            </lane>
        </edge>
        <edge id="L2216">
            <lane id="L2216_0">
                <vehicle id="F08_0" pos="44.67" speed="11.09"/>
            </lane>
        </edge>
        <edge id="L2418">
            <lane id="L2418_0"/>
            <lane id="L2418_1"/>
            <lane id="L2418_2">
                <vehicle id="F11_0" pos="43.87" speed="11.54"/>
            </lane>
        </edge>
        <edge id="L2423">
            <lane id="L2423_0"/>
            <lane id="L2423_1">
                <vehicle id="F05_0" pos="43.69" speed="10.76"/>
            </lane>
        </edge>
    </timestep>
    <timestep time="7.00">
        <edge id="L0102">
            <lane id="L0102_0">
                <vehicle id="F02_0" pos="55.83" speed="13.55"/>
            </lane>
            <lane id="L0102_1"/>
        </edge>
        <edge id="L0107">
            <lane id="L0107_0">
                <vehicle id="F01_1" pos="21.57" speed="7.03"/>
                <vehicle id="F01_0" pos="60.26" speed="13.67"/>
            </lane>
            <lane id="L0107_1">
                <vehicle id="F01_2" pos="7.45" speed="2.35"/>
            </lane>
            <lane id="L0107_2"/>
        </edge>
        <edge id="L0208">
            <lane id="L0208_0">
                <vehicle id="F06_0" pos="49.97" speed="10.17"/>
            </lane>
        </edge>
        <edge id="L0309">
            <lane id="L0309_0"/>
            <lane id="L0309_1">
                <vehicle id="F07_0" pos="62.49" speed="13.41"/>
            </lane>
        </edge>
        <edge id="L0511">
            <lane id="L0511_0">
                <vehicle id="F09_0" pos="58.71" speed="10.63"/>
            </lane>
        </edge>
        <edge id="L0612">
            <lane id="L0612_0">
                <vehicle id="F13_1" pos="5.10" speed="0.00"/>
                <vehicle id="F10_0" pos="65.27" speed="14.96"/>
            </lane>
            <lane id="L0612_1">
                <vehicle id="F13_0" pos="57.39" speed="10.96"/>
            </lane>
            <lane id="L0612_2"/>
        </edge>
        <edge id="L1211">
            <lane id="L1211_0">
                <vehicle id="F03_0" pos="59.04" speed="13.43"/>
            </lane>
            <lane id="L1211_1"/>
        </edge>
        <edge id="L1314">
            <lane id="L1314_0">
                <vehicle id="F04_0" pos="57.27" speed="12.80"/>
            </lane>
            <lane id="L1314_1"/>
        </edge>
        <edge id="L1913">
            <lane id="L1913_0">
                <vehicle id="F00_2" pos="6.50" speed="1.40"/>
                <vehicle id="rAmb_0" pos="62.10" speed="13.55"/>
            </lane>
            <lane id="L1913_1">
                <vehicle id="F00_1" pos="13.02" speed="3.99"/>
                <vehicle id="F12_1" pos="22.43" speed="6.94"/>
                <vehicle id="F12_0" pos="43.36" speed="8.59"/>
                <vehicle id="F00_0" pos="61.04" speed="14.76"/>
            </lane>
            <lane id="L1913_2">
                <vehicle id="F12_2" pos="5.10" speed="0.00"/>
            </lane>
        </edge>
        <edge id="L2115">
            <lane id="L2115_0"/>
            <lane id="L2115_1">
                <vehicle id="F075_0" pos="60.06" speed="13.36"/>
            </lane>
        </edge>
        <edge id="L2216">
            <lane id="L2216_0">
                <vehicle id="F08_0" pos="54.57" speed="9.90"/>
            </lane>
        </edge>
        <edge id="L2418">
            <lane id="L2418_0"/>
            <lane id="L2418_1"/>
            <lane id="L2418_2">
                <vehicle id="F11_0" pos="56.77" speed="12.90"/>
            </lane>
        </edge>
        <edge id="L2423">
            <lane id="L2423_0"/>
            <lane id="L2423_1">
                <vehicle id="F05_0" pos="56.73" speed="13.04"/>
            </lane>
        </edge>
    </timestep>
    <timestep time="8.00">
        <edge id="L0102">
            <lane id="L0102_0"/>
            <lane id="L0102_1">
                <vehicle id="F02_0" pos="70.38" speed="14.55"/>
            </lane>
        </edge>
        <edge id="L0107">
            <lane id="L0107_0">
                <vehicle id="F01_1" pos="30.42" speed="8.85"/>
                <vehicle id="F01_0" pos="75.94" speed="15.68"/>
            </lane>
            <lane id="L0107_1">
                <vehicle id="F01_2" pos="11.64" speed="4.19"/>
            </lane>
            <lane id="L0107_2"/>
        </edge>
        <edge id="L0208">
            <lane id="L0208_0">
                <vehicle id="F06_0" pos="60.79" speed="10.83"/>
            </lane>
        </edge>
        <edge id="L0309">
            <lane id="L0309_0"/>
            <lane id="L0309_1">
                <vehicle id="F07_0" pos="77.47" speed="14.99"/>
            </lane>
        </edge>
        <edge id="L0511">
            <lane id="L0511_0">
                <vehicle id="F09_0" pos="69.64" speed="10.94"/>
            </lane>
        </edge>
        <edge id="L0612">
            <lane id="L0612_0">
                <vehicle id="F13_1" pos="7.67" speed="2.57"/>
                <vehicle id="F13_0" pos="67.31" speed="9.92"/>
                <vehicle id="F10_0" pos="82.30" speed="17.02"/>
            </lane>
            <lane id="L0612_1"/>
            <lane id="L0612_2"/>
        </edge>
        <edge id="L1211">
            <lane id="L1211_0">
                <vehicle id="F03_0" pos="74.03" speed="14.99"/>
            </lane>
            <lane id="L1211_1"/>
        </edge>
        <edge id="L1314">
            <lane id="L1314_0"/>
            <lane id="L1314_1">
                <vehicle id="F04_0" pos="71.72" speed="14.45"/>
            </lane>
        </edge>
        <edge id="L1913">
            <lane id="L1913_0">
                <vehicle id="F00_2" pos="9.37" speed="2.87"/>
                <vehicle id="F12_0" pos="54.04" speed="10.68"/>
                <vehicle id="rAmb_0" pos="77.81" speed="15.71"/>
            </lane>
            <lane id="L1913_1">
                <vehicle id="F00_1" pos="15.89" speed="2.87"/>
                <vehicle id="F12_1" pos="31.30" speed="8.86"/>
                <vehicle id="F00_0" pos="77.28" speed="16.23"/>
            </lane>
            <lane id="L1913_2">
                <vehicle id="F12_2" pos="6.65" speed="1.55"/>
            </lane>
        </edge>
        <edge id="L2115">
            <lane id="L2115_0"/>
            <lane id="L2115_1">
                <vehicle id="F075_0" pos="75.41" speed="15.35"/>
            </lane>
        </edge>
        <edge id="L2216">
            <lane id="L2216_0">
                <vehicle id="F08_0" pos="65.03" speed="10.45"/>
            </lane>
        </edge>
        <edge id="L2418">
            <lane id="L2418_0"/>
            <lane id="L2418_1"/>
            <lane id="L2418_2">
                <vehicle id="F11_0" pos="71.64" speed="14.87"/>
            </lane>
        </edge>
        <edge id="L2423">
            <lane id="L2423_0"/>
            <lane id="L2423_1">
                <vehicle id="F05_0" pos="71.98" speed="15.24"/>
            </lane>
        </edge>
    </timestep>
    <timestep time="9.00">
        <edge id="L0102">
            <lane id="L0102_0"/>
            <lane id="L0102_1">
                <vehicle id="F02_0" pos="85.85" speed="15.47"/>
            </lane>
        </edge>
        <edge id="L0107">
            <lane id="L0107_0">
                <vehicle id="F01_1" pos="40.81" speed="10.39"/>
                <vehicle id="F01_0" pos="92.95" speed="17.01"/>
            </lane>
            <lane id="L0107_1">
                <vehicle id="F01_3" pos="5.10" speed="0.00"/>
                <vehicle id="F01_2" pos="17.51" speed="5.87"/>
            </lane>
            <lane id="L0107_2"/>
        </edge>
        <edge id="L0208">
            <lane id="L0208_0">
                <vehicle id="F06_0" pos="71.26" speed="10.47"/>
            </lane>
        </edge>
        <edge id="L0309">
            <lane id="L0309_0"/>
            <lane id="L0309_1">
                <vehicle id="F07_0" pos="92.00" speed="14.52"/>
            </lane>
        </edge>
        <edge id="L0511">
            <lane id="L0511_0">
                <vehicle id="F09_0" pos="80.33" speed="10.69"/>
            </lane>
        </edge>
        <edge id="L0612">
            <lane id="L0612_0">
                <vehicle id="F13_1" pos="11.61" speed="3.94"/>
                <vehicle id="F13_0" pos="79.81" speed="12.50"/>
                <vehicle id="F10_0" pos="101.12" speed="18.82"/>
            </lane>
            <lane id="L0612_1"/>
            <lane id="L0612_2"/>
        </edge>
        <edge id="L1211">
            <lane id="L1211_0">
                <vehicle id="F03_0" pos="88.76" speed="14.74"/>
            </lane>
            <lane id="L1211_1"/>
        </edge>
        <edge id="L1314">
            <lane id="L1314_0"/>
            <lane id="L1314_1">
                <vehicle id="F04_0" pos="86.62" speed="14.90"/>
            </lane>
        </edge>
        <edge id="L1913">
            <lane id="L1913_0">
                <vehicle id="F00_2" pos="13.65" speed="4.28"/>
                <vehicle id="F12_0" pos="66.07" speed="12.03"/>
                <vehicle id="rAmb_0" pos="95.06" speed="17.25"/>
            </lane>
            <lane id="L1913_1">
                <vehicle id="F00_1" pos="21.27" speed="5.38"/>
                <vehicle id="F12_1" pos="42.59" speed="11.29"/>
                <vehicle id="F00_0" pos="95.24" speed="17.96"/>