<?xml version="1.0"?>

<!-- generated on Wed Apr 17 22:12:31 2013 by SUMO sumo Version 0.16.0
<?xml version="1.0" encoding="UTF-8"?>

<configuration xmlns:xsi="http://www.w3.org/2001/XMLSchema-instance" xsi:noNamespaceSchemaLocation="http://sumo.sf.net/xsd/sumoConfiguration.xsd">

    <input>
        <net-file value="../grid6_4.net.xml"/>
        <route-files value="grid6_4.rou.xml"/>
    </input>

    <output>
        <netstate-dump value="netstate6_4.xml"/>
    </output>

    <time>
        <begin value="0"/>
        <end value="200"/>
    </time>

    <processing>
        <time-to-teleport value="-1"/>
    </processing>

</configuration>
-->

<sumo-netstate>
    <timestep time="0.00">
        <edge id="L0102">
            <lane id="L0102_0">
                <vehicle id="F02_0" pos="5.10" speed="0.00"/>
            </lane>
            <lane id="L0102_1"/>
        </edge>
        <edge id="L0107">
            <lane id="L0107_0">
                <vehicle id="F01_0" pos="5.10" speed="0.00"/>
            </lane>
            <lane id="L0107_1"/>
            <lane id="L0107_2"/>
        </edge>
        <edge id="L0208">
            <lane id="L0208_0">
                <vehicle id="F06_0" pos="5.10" speed="0.00"/>
            </lane>
        </edge>
        <edge id="L0309">
            <lane id="L0309_0">
                <vehicle id="F07_0" pos="5.10" speed="0.00"/>
            </lane>
        </edge>
        <edge id="L0511">
            <lane id="L0511_0">
                <vehicle id="F09_0" pos="5.10" speed="0.00"/>
            </lane>
        </edge>
        <edge id="L0612">
            <lane id="L0612_0">
                <vehicle id="F10_0" pos="5.10" speed="0.00"/>
            </lane>
            <lane id="L0612_1"/>
            <lane id="L0612_2"/>
        </edge>
        <edge id="L1211">
            <lane id="L1211_0">
                <vehicle id="F03_0" pos="5.10" speed="0.00"/>
            </lane>
            <lane id="L1211_1"/>
        </edge>
        <edge id="L1913">
            <lane id="L1913_0">
                <vehicle id="F00_0" pos="5.10" speed="0.00"/>
            </lane>
            <lane id="L1913_1"/>
            <lane id="L1913_2"/>
        </edge>
        <edge id="L2115">
            <lane id="L2115_0">
                <vehicle id="F075_0" pos="5.10" speed="0.00"/>
            </lane>
        </edge>
        <edge id="L2216">
            <lane id="L2216_0">
                <vehicle id="F08_0" pos="5.10" speed="0.00"/>
            </lane>
        </edge>
        <edge id="L2423">
            <lane id="L2423_0">
                <vehicle id="F05_0" pos="5.10" speed="0.00"/>
            </lane>
            <lane id="L2423_1"/>
        </edge>
    </timestep>
    <timestep time="1.00">
        <edge id="L0102">
            <lane id="L0102_0">
                <vehicle id="F02_0" pos="7.64" speed="2.54"/>
            </lane>
            <lane id="L0102_1"/>
        </edge>
        <edge id="L0107">
            <lane id="L0107_0">
                <vehicle id="F01_0" pos="6.93" speed="1.83"/>
            </lane>
            <lane id="L0107_1"/>
            <lane id="L0107_2"/>
        </edge>
        <edge id="L0208">
            <lane id="L0208_0">
                <vehicle id="F06_0" pos="6.73" speed="1.63"/>
            </lane>
        </edge>
        <edge id="L0309">
            <lane id="L0309_0">
                <vehicle id="F07_0" pos="7.38" speed="2.28"/>
            </lane>
        </edge>
        <edge id="L0511">
            <lane id="L0511_0">
                <vehicle id="F09_0" pos="6.99" speed="1.89"/>
            </lane>
        </edge>
        <edge id="L0612">
            <lane id="L0612_0">
                <vehicle id="F10_0" pos="7.06" speed="1.96"/>
            </lane>
            <lane id="L0612_1"/>
            <lane id="L0612_2"/>
        </edge>
        <edge id="L1211">
            <lane id="L1211_0">
                <vehicle id="F03_0" pos="7.64" speed="2.54"/>
            </lane>
            <lane id="L1211_1"/>
        </edge>
        <edge id="L1913">
            <lane id="L1913_0">
                <vehicle id="F00_0" pos="6.77" speed="1.67"/>
            </lane>
            <lane id="L1913_1"/>
            <lane id="L1913_2"/>
        </edge>
        <edge id="L2115">
            <lane id="L2115_0">
                <vehicle id="F075_0" pos="6.73" speed="1.63"/>
            </lane>
        </edge>
        <edge id="L2216">
            <lane id="L2216_0">
                <vehicle id="F08_0" pos="7.69" speed="2.59"/>
            </lane>
        </edge>
        <edge id="L2423">
            <lane id="L2423_0">
                <vehicle id="F05_0" pos="6.54" speed="1.44"/>
            </lane>
            <lane id="L2423_1"/>
        </edge>
    </timestep>
    <timestep time="2.00">
        <edge id="L0102">
            <lane id="L0102_0">
                <vehicle id="F02_0" pos="12.71" speed="5.06"/>
            </lane>
            <lane id="L0102_1"/>
        </edge>
        <edge id="L0107">
            <lane id="L0107_0">
                <vehicle id="F01_0" pos="11.02" speed="4.09"/>
            </lane>
            <lane id="L0107_1"/>
            <lane id="L0107_2"/>
        </edge>
        <edge id="L0208">
            <lane id="L0208_0">
                <vehicle id="F06_0" pos="9.83" speed="3.10"/>
            </lane>
        </edge>
        <edge id="L0309">
            <lane id="L0309_0">
                <vehicle id="F07_0" pos="11.84" speed="4.46"/>
            </lane>
        </edge>
        <edge id="L0511">
            <lane id="L0511_0">
                <vehicle id="F09_0" pos="10.59" speed="3.60"/>
            </lane>
        </edge>
        <edge id="L0612">
            <lane id="L0612_0">
                <vehicle id="F10_0" pos="10.89" speed="3.82"/>
            </lane>
            <lane id="L0612_1"/>
            <lane id="L0612_2"/>
        </edge>
        <edge id="L1211">
            <lane id="L1211_0">
                <vehicle id="F03_0" pos="12.19" speed="4.55"/>
            </lane>
            <lane id="L1211_1"/>
        </edge>
        <edge id="L1913">
            <lane id="L1913_0">
                <vehicle id="F00_0" pos="10.44" speed="3.67"/>
            </lane>
            <lane id="L1913_1"/>
            <lane id="L1913_2"/>
        </edge>
        <edge id="L2115">
            <lane id="L2115_0">
                <vehicle id="F075_0" pos="10.90" speed="4.17"/>
            </lane>
        </edge>
        <edge id="L2216">
            <lane id="L2216_0">
                <vehicle id="F08_0" pos="12.22" speed="4.53"/>
            </lane>
        </edge>
        <edge id="L2423">
            <lane id="L2423_0">
                <vehicle id="F05_0" pos="9.71" speed="3.17"/>
            </lane>
            <lane id="L2423_1"/>
        </edge>
    </timestep>
    <timestep time="3.00">
        <edge id="L0102">
            <lane id="L0102_0">
                <vehicle id="F02_0" pos="19.86" speed="7.15"/>
            </lane>
            <lane id="L0102_1"/>
        </edge>
        <edge id="L0107">
            <lane id="L0107_0">
                <vehicle id="F01_0" pos="16.56" speed="5.54"/>
            </lane>
            <lane id="L0107_1">
                <vehicle id="F01_1" pos="5.10" speed="0.00"/>
            </lane>
            <lane id="L0107_2"/>
        </edge>
        <edge id="L0208">
            <lane id="L0208_0">
                <vehicle id="F06_0" pos="14.82" speed="4.99"/>
            </lane>
        </edge>
        <edge id="L0309">
            <lane id="L0309_0">
                <vehicle id="F07_0" pos="18.59" speed="6.75"/>
            </lane>
        </edge>
        <edge id="L0511">
            <lane id="L0511_0">
                <vehicle id="F09_0" pos="16.75" speed="6.16"/>
            </lane>
        </edge>
        <edge id="L0612">
            <lane id="L0612_0">
                <vehicle id="F10_0" pos="16.24" speed="5.35"/>
            </lane>
            <lane id="L0612_1"/>
            <lane id="L0612_2"/>
        </edge>
        <edge id="L1211">
            <lane id="L1211_0">
                <vehicle id="F03_0" pos="18.13" speed="5.93"/>
            </lane>
            <lane id="L1211_1"/>
        </edge>
        <edge id="L1913">
            <lane id="L1913_0">
                <vehicle id="F041_0" pos="5.10" speed="0.00"/>
                <vehicle id="F00_0" pos="15.89" speed="5.44"/>
            </lane>
            <lane id="L1913_1">
                <vehicle id="F00_1" pos="5.10" speed="0.00"/>
            </lane>
            <lane id="L1913_2"/>
        </edge>
        <edge id="L2115">
            <lane id="L2115_0">
                <vehicle id="F075_0" pos="17.28" speed="6.38"/>
            </lane>
        </edge>
        <edge id="L2216">
            <lane id="L2216_0">
                <vehicle id="F08_0" pos="18.35" speed="6.13"/>
            </lane>
        </edge>
        <edge id="L2423">
            <lane id="L2423_0">
                <vehicle id="F05_0" pos="15.08" speed="5.37"/>
            </lane>
            <lane id="L2423_1"/>
        </edge>
    </timestep>
    <timestep time="4.00">
        <edge id="L0102">
            <lane id="L0102_0">
                <vehicle id="F02_0" pos="28.35" speed="8.50"/>
            </lane>
            <lane id="L0102_1"/>
        </edge>
        <edge id="L0107">
            <lane id="L0107_0">
                <vehicle id="F01_0" pos="24.16" speed="7.60"/>
            </lane>
            <lane id="L0107_1">
                <vehicle id="F01_1" pos="6.46" speed="1.36"/>
            </lane>
            <lane id="L0107_2"/>
        </edge>
        <edge id="L0208">
            <lane id="L0208_0">
                <vehicle id="F06_0" pos="22.06" speed="7.24"/>
            </lane>
        </edge>
        <edge id="L0309">
            <lane id="L0309_0">
                <vehicle id="F07_0" pos="27.65" speed="9.06"/>
            </lane>
        </edge>
        <edge id="L0511">
            <lane id="L0511_0">
                <vehicle id="F09_0" pos="25.30" speed="8.54"/>
            </lane>
        </edge>
        <edge id="L0612">
            <lane id="L0612_0">
                <vehicle id="F10_0" pos="24.03" speed="7.79"/>
            </lane>
            <lane id="L0612_1"/>
            <lane id="L0612_2"/>
        </edge>
        <edge id="L1211">
            <lane id="L1211_0">
                <vehicle id="F03_0" pos="26.49" speed="8.36"/>
            </lane>
            <lane id="L1211_1"/>
        </edge>
        <edge id="L1913">
            <lane id="L1913_0">
                <vehicle id="F041_0" pos="6.81" speed="1.71"/>
                <vehicle id="F00_0" pos="23.50" speed="7.61"/>
            </lane>
            <lane id="L1913_1">
                <vehicle id="F00_1" pos="7.49" speed="2.39"/>
            </lane>
            <lane id="L1913_2"/>
        </edge>
        <edge id="L2115">
            <lane id="L2115_0">
                <vehicle id="F075_0" pos="25.52" speed="8.24"/>
            </lane>
        </edge>
        <edge id="L2216">
            <lane id="L2216_0">
                <vehicle id="F08_0" pos="26.77" speed="8.42"/>
            </lane>
        </edge>
        <edge id="L2423">
            <lane id="L2423_0">
                <vehicle id="F05_0" pos="23.00" speed="7.93"/>
            </lane>
            <lane id="L2423_1"/>
        </edge>
    </timestep>
    <timestep time="5.00">
        <edge id="L0102">
            <lane id="L0102_0">
                <vehicle id="F02_0" pos="39.05" speed="10.70"/>
            </lane>
            <lane id="L0102_1"/>
        </edge>
        <edge id="L0107">
            <lane id="L0107_0">
                <vehicle id="F01_0" pos="33.11" speed="8.95"/>
            </lane>
            <lane id="L0107_1">
                <vehicle id="F01_1" pos="10.30" speed="3.84"/>
            </lane>
            <lane id="L0107_2"/>
        </edge>
        <edge id="L0208">
            <lane id="L0208_0">
                <vehicle id="F06_0" pos="31.27" speed="9.20"/>
            </lane>
        </edge>
        <edge id="L0309">
            <lane id="L0309_0">
                <vehicle id="F07_0" pos="38.08" speed="10.43"/>
            </lane>
        </edge>
        <edge id="L0511">
            <lane id="L0511_0">
                <vehicle id="F09_0" pos="36.22" speed="10.92"/>
            </lane>
        </edge>
        <edge id="L0612">
            <lane id="L0612_0">
                <vehicle id="F10_0" pos="33.20" speed="9.17"/>
            </lane>
            <lane id="L0612_1"/>
            <lane id="L0612_2"/>
        </edge>
        <edge id="L1211">
            <lane id="L1211_0">
                <vehicle id="F03_0" pos="36.56" speed="10.07"/>
            </lane>
            <lane id="L1211_1"/>
        </edge>
        <edge id="L1913">
            <lane id="L1913_0">
                <vehicle id="F041_0" pos="10.19" speed="3.38"/>
                <vehicle id="F00_0" pos="32.94" speed="9.44"/>
            </lane>
            <lane id="L1913_1">
                <vehicle id="F00_1" pos="11.43" speed="3.94"/>
            </lane>
            <lane id="L1913_2"/>
        </edge>
        <edge id="L2115">
            <lane id="L2115_0">
                <vehicle id="F075_0" pos="35.11" speed="9.59"/>
            </lane>
        </edge>
        <edge id="L2216">
            <lane id="L2216_0">
                <vehicle id="F08_0" pos="37.55" speed="10.78"/>
            </lane>
        </edge>
        <edge id="L2423">
            <lane id="L2423_0">
                <vehicle id="F05_0" pos="32.67" speed="9.66"/>
            </lane>
            <lane id="L2423_1"/>
        </edge>
    </timestep>
    <timestep time="6.00">
        <edge id="L0102">
            <lane id="L0102_0">
                <vehicle id="F02_0" pos="51.05" speed="12.01"/>
            </lane>
            <lane id="L0102_1"/>
        </edge>
        <edge id="L0107">
            <lane id="L0107_0">
                <vehicle id="F01_0" pos="44.43" speed="11.32"/>
            </lane>
            <lane id="L0107_1">
                <vehicle id="F01_1" pos="16.54" speed="6.24"/>
            </lane>
            <lane id="L0107_2">
                <vehicle id="F01_2" pos="5.10" speed="0.00"/>
            </lane>
        </edge>
        <edge id="L0208">
            <lane id="L0208_0">
                <vehicle id="F06_0" pos="42.04" speed="10.77"/>
            </lane>
        </edge>
        <edge id="L0309">
            <lane id="L0309_0">
                <vehicle id="F07_0" pos="48.82" speed="10.74"/>
            </lane>
        </edge>
        <edge id="L0511">
            <lane id="L0511_0">
                <vehicle id="F09_0" pos="47.29" speed="11.07"/>
            </lane>
        </edge>
        <edge id="L0612">
            <lane id="L0612_0">
                <vehicle id="F10_0" pos="44.89" speed="11.69"/>
            </lane>
            <lane id="L0612_1"/>
            <lane id="L0612_2"/>
        </edge>
        <edge id="L1211">
            <lane id="L1211_0">
                <vehicle id="F03_0" pos="48.01" speed="11.46"/>
            </lane>
            <lane id="L1211_1"/>
        </edge>
        <edge id="L1913">
            <lane id="L1913_0">
                <vehicle id="F042_0" pos="5.10" speed="0.00"/>
                <vehicle id="F041_0" pos="15.81" speed="5.62"/>
                <vehicle id="F00_0" pos="44.27" speed="11.33"/>
            </lane>
            <lane id="L1913_1">
                <vehicle id="F00_1" pos="17.13" speed="5.70"/>
            </lane>
            <lane id="L1913_2">
                <vehicle id="F00_2" pos="5.10" speed="0.00"/>
            </lane>
        </edge>
        <edge id="L2115">
            <lane id="L2115_0">
                <vehicle id="F075_0" pos="45.55" speed="10.44"/>
            </lane>
        </edge>
        <edge id="L2216">
            <lane id="L2216_0">
                <vehicle id="F08_0" pos="48.46" speed="10.91"/>
            </lane>
        </edge>
        <edge id="L2423">
            <lane id="L2423_0">
                <vehicle id="F05_0" pos="44.89" speed="12.22"/>
            </lane>
            <lane id="L2423_1"/>
        </edge>
    </timestep>
    <timestep time="7.00">
        <edge id="L0102">
            <lane id="L0102_0">
                <vehicle id="F02_0" pos="64.99" speed="13.94"/>
            </lane>
            <lane id="L0102_1"/>
        </edge>
        <edge id="L0107">
            <lane id="L0107_0">
                <vehicle id="F01_0" pos="57.84" speed="13.41"/>
            </lane>
            <lane id="L0107_1">
                <vehicle id="F01_1" pos="24.45" speed="7.90"/>
            </lane>
            <lane id="L0107_2">
                <vehicle id="F01_2" pos="7.64" speed="2.54"/>
            </lane>
        </edge>
        <edge id="L0208">
            <lane id="L0208_0">
                <vehicle id="F06_0" pos="52.14" speed="10.11"/>
            </lane>
        </edge>
        <edge id="L0309">
            <lane id="L0309_0">
                <vehicle id="F07_0" pos="59.24" speed="10.42"/>
            </lane>
        </edge>
        <edge id="L0511">
            <lane id="L0511_0">
                <vehicle id="F09_0" pos="57.92" speed="10.64"/>
            </lane>
        </edge>
        <edge id="L0612">
            <lane id="L0612_0">
                <vehicle id="F10_0" pos="58.38" speed="13.49"/>
            </lane>
            <lane id="L0612_1"/>
            <lane id="L0612_2"/>
        </edge>
        <edge id="L1211">
            <lane id="L1211_0">
                <vehicle id="F03_0" pos="61.52" speed="13.51"/>
            </lane>
            <lane id="L1211_1"/>
        </edge>
        <edge id="L1913">
            <lane id="L1913_0">
                <vehicle id="F042_0" pos="7.32" speed="2.22"/>
                <vehicle id="F041_0" pos="23.75" speed="7.94"/>
                <vehicle id="F00_0" pos="57.31" speed="13.05"/>
            </lane>
            <lane id="L1913_1">
                <vehicle id="F00_1" pos="25.33" speed="8.20"/>
            </lane>
            <lane id="L1913_2">
                <vehicle id="F00_2" pos="7.47" speed="2.37"/>
            </lane>
        </edge>
        <edge id="L2115">
            <lane id="L2115_0">
                <vehicle id="F075_0" pos="56.26" speed="10.71"/>
            </lane>
        </edge>
        <edge id="L2216">
            <lane id="L2216_0">
                <vehicle id="F08_0" pos="58.37" speed="9.91"/>
            </lane>
        </edge>
        <edge id="L2423">
            <lane id="L2423_0">
                <vehicle id="F05_0" pos="59.26" speed="14.37"/>
            </lane>
            <lane id="L2423_1"/>
        </edge>
    </timestep>
    <timestep time="8.00">
        <edge id="L0102">
            <lane id="L0102_0">
                <vehicle id="F02_0" pos="79.90" speed="14.90"/>
            </lane>
            <lane id="L0102_1"/>
        </edge>
        <edge id="L0107">
            <lane id="L0107_0">
                <vehicle id="F01_0" pos="72.72" speed="14.88"/>
            </lane>
            <lane id="L0107_1">
                <vehicle id="F01_1" pos="33.81" speed="9.37"/>
            </lane>
            <lane id="L0107_2">
                <vehicle id="F01_2" pos="12.38" speed="4.75"/>
            </lane>
        </edge>
        <edge id="L0208">
            <lane id="L0208_0">
                <vehicle id="F06_1" pos="5.10" speed="0.00"/>
                <vehicle id="F06_0" pos="62.06" speed="9.92"/>
            </lane>
        </edge>
        <edge id="L0309">
            <lane id="L0309_0">
                <vehicle id="F07_0" pos="70.03" speed="10.79"/>
            </lane>
        </edge>
        <edge id="L0511">
            <lane id="L0511_0">
                <vehicle id="F09_0" pos="68.57" speed="10.65"/>
            </lane>
        </edge>
        <edge id="L0612">
            <lane id="L0612_0">
                <vehicle id="F10_0" pos="73.88" speed="15.50"/>
            </lane>
            <lane id="L0612_1"/>
            <lane id="L0612_2"/>
        </edge>
        <edge id="L1211">
            <lane id="L1211_0">
                <vehicle id="F03_0" pos="76.25" speed="14.73"/>
            </lane>
            <lane id="L1211_1"/>
        </edge>
        <edge id="L1913">
            <lane id="L1913_0">
                <vehicle id="F042_0" pos="10.94" speed="3.62"/>
                <vehicle id="F041_0" pos="33.65" speed="9.90"/>
                <vehicle id="F00_0" pos="72.40" speed="15.09"/>
            </lane>
            <lane id="L1913_1">
                <vehicle id="F00_1" pos="36.00" speed="10.66"/>
            </lane>
            <lane id="L1913_2">
                <vehicle id="F00_2" pos="12.40" speed="4.93"/>
            </lane>
        </edge>
        <edge id="L2115">
            <lane id="L2115_0">
                <vehicle id="F075_0" pos="66.99" speed="10.73"/>
            </lane>
        </edge>
        <edge id="L2216">
            <lane id="L2216_0">
                <vehicle id="F08_0" pos="68.64" speed="10.27"/>
            </lane>
        </edge>
        <edge id="L2423">
            <lane id="L2423_0">
                <vehicle id="F05_0" pos="74.09" speed="14.84"/>
            </lane>
            <lane id="L2423_1">
                <vehicle id="F05_1" pos="5.10" speed="0.00"/>
            </lane>
        </edge>
    </timestep>
    <timestep time="9.00">
        <edge id="L0102">
            <lane id="L0102_0">
                <vehicle id="F02_0" pos="95.49" speed="15.59"/>
            </lane>
            <lane id="L0102_1"/>
        </edge>
        <edge id="L0107">
            <lane id="L0107_0">
                <vehicle id="F01_3" pos="5.10" speed="0.00"/>
                <vehicle id="F01_0" pos="89.57" speed="16.85"/>
            </lane>
            <lane id="L0107_1">
                <vehicle id="F01_1" pos="45.41" speed="11.60"/>
            </lane>
            <lane id="L0107_2">
                <vehicle id="F01_2" pos="18.87" speed="6.49"/>
            </lane>
        </edge>
        <edge id="L0208">
            <lane id="L0208_0">
                <vehicle id="F06_1" pos="7.19" speed="2.09"/>
                <vehicle id="F06_0" pos="72.36" speed="10.30"/>
            </lane>
        </edge>
        <edge id="L0309">
            <lane id="L0309_0">
                <vehicle id="F07_0" pos="79.94" speed="9.91"/>
            </lane>
        </edge>
        <edge id="L0511">
            <lane id="L0511_0">
                <vehicle id="F09_0" pos="78.65" speed="10.08"/>
            </lane>
        </edge>
        <edge id="L0612">
            <lane id="L0612_0">
                <vehicle id="F10_0" pos="91.49" speed="17.61"/>
            </lane>
            <lane id="L0612_1"/>
            <lane id="L0612_2"/>
        </edge>
        <edge id="L1211">
            <lane id="L1211_0">
                <vehicle id="F03_0" pos="90.75" speed="14.50"/>
            </lane>
            <lane id="L1211_1"/>
        </edge>
        <edge id="L1913">
            <lane id="L1913_0">
                <vehicle id="F04_0" pos="5.10" speed="0.00"/>
                <vehicle id="F042_0" pos="17.00" speed="6.06"/>
                <vehicle id="F041_0" pos="45.22" speed="11.57"/>
                <vehicle id="F00_0" pos="89.91" speed="17.51"/>
            </lane>
            <lane id="L1913_1">
                <vehicle id="F00_3" pos="5.10" speed="0.00"/>
                <vehicle id="F00_1" pos="48.25" speed="12.25"/>
            </lane>
            <lane id="L1913_2">
                <vehicle id="F00_2" pos="19.33" speed="6.93"/>
            </lane>
        </edge>
        <edge id="L2115">
            <lane id="L2115_0">
                <vehicle id="F075_0" pos="77.97" speed="10.98"/>
            </lane>
        </edge>
        <edge id="L2216">
            <lane id="L2216_0">
                <vehicle id="F08_0" pos="78.64" speed="10.00"/>
            </lane>
        </edge>
        <edge id="L2423">
            <lane id="L2423_0">
                <vehicle id="F05_0" pos="88.82" speed="14.72"/>
            </lane>
            <lane id="L2423_1">
                <vehicle id="F05_1" pos="7.57" speed="2.47"/>
            </lane>
        </edge>
    </timestep>
    <timestep time="10.00">
        <edge id="L0102">
            <lane id="L0102_0">
                <vehicle id="F02_0" pos="111.12" speed="15.63"/>
            </lane>
            <lane id="L0102_1">
                <vehicle id="F02_1" pos="5.10" speed="0.00"/>
            </lane>
        </edge>
        <edge id="L0107">
            <lane id="L0107_0">
                <vehicle id="F01_3" pos="6.47" speed="1.37"/>
                <vehicle id="F01_0" pos="108.31" speed="18.74"/>
            </lane>
            <lane id="L0107_1">
                <vehicle id="F01_1" pos="59.12" speed="13.71"/>
            </lane>
            <lane id="L0107_2">
                <vehicle id="F01_2" pos="27.39" speed="8.53"/>
            </lane>
        </edge>
        <edge id="L0208">
            <lane id="L0208_0">
                <vehicle id="F06_1" pos="10.61" speed="3.42"/>
                <vehicle id="F06_0" pos="82.39" speed="10.03"/>
            </lane>
        </edge>
        <edge id="L0309">
            <lane id="L0309_0">
                <vehicle id="F07_0" pos="90.49" speed="10.55"/>
            </lane>
        </edge>
        <edge id="L0511">
            <lane id="L0511_0">
                <vehicle id="F09_0" pos="88.66" speed="10.01"/>
            </lane>
        </edge>
        <edge id="L0612">
            <lane id="L0612_0">
                <vehicle id="F10_0" pos="110.54" speed="19.05"/>
            </lane>
            <lane id="L0612_1"/>
            <lane id="L0612_2"/>
        </edge>
        <edge id="L1211">
            <lane id="L1211_0">
                <vehicle id="F03_0" pos="105.57" speed="14.82"/>
            </lane>
            <lane id="L1211_1">
                <vehicle id="F03_1" pos="5.10" speed="0.00"/>
            </lane>
        </edge>
        <edge id="L1913">
            <lane id="L1913_0">
                <vehicle id="F04_0" pos="6.93" speed="1.83"/>
                <vehicle id="F042_0" pos="24.92" speed="7.91"/>
                <vehicle id="F041_0" pos="59.26" speed="14.04"/>
                <vehicle id="F00_0" pos="108.91" speed="19.00"/>
            </lane>
            <lane id="L1913_1">
                <vehicle id="F00_3" pos="6.93" speed="1.83"/>
                <vehicle id="F00_1" pos="62.73" speed="14.49"/>
            </lane>
            <lane id="L1913_2">
                <vehicle id="F00_2" pos="27.99" speed="8.67"/>
            </lane>
        </edge>
        <edge id="L2115">
            <lane id="L2115_0">
                <vehicle id="F075_0" pos="88.94" speed="10.96"/>
            </lane>
        </edge>
        <edge id="L2216">
            <lane id="L2216_0">
                <vehicle id="F08_0" pos="89.37" speed="10.73"/>
            </lane>
        </edge>
        <edge id="L2423">
            <lane id="L2423_0">
                <vehicle id="F05_0" pos="103.58" speed="14.76"/>
            </lane>
            <lane id="L2423_1">
                <vehicle id="F05_1" pos="12.19" speed="4.62"/>
            </lane>
        </edge>
    </timestep>
    <timestep time="11.00">
        <edge id="L0102">
            <lane id="L0102_0">
                <vehicle id="F02_0" pos="125.75" speed="14.63"/>
            </lane>
            <lane id="L0102_1">
                <vehicle id="F02_1" pos="7.09" speed="1.99"/>
            </lane>
        </edge>
        <edge id="L0107">
            <lane id="L0107_0">
                <vehicle id="F01_3" pos="9.81" speed="3.34"/>
                <vehicle id="F01_0" pos="127.22" speed="18.90"/>
            </lane>
            <lane id="L0107_1">
                <vehicle id="F01_1" pos="74.80" speed="15.68"/>
            </lane>
            <lane id="L0107_2">
                <vehicle id="F01_2" pos="37.66" speed="10.27"/>
            </lane>
        </edge>
        <edge id="L0208">
            <lane id="L0208_0">
                <vehicle id="F06_1" pos="16.02" speed="5.42"/>
                <vehicle id="F06_0" pos="92.47" speed="10.08"/>
            </lane>
        </edge>
        <edge id="L0309">
            <lane id="L0309_0">
                <vehicle id="F07_0" pos="101.24" speed="10.75"/>
            </lane>
        </edge>
        <edge id="L0511">
            <lane id="L0511_0">
                <vehicle id="F09_0" pos="99.57" speed="10.91"/>
            </lane>
        </edge>
        <edge id="L0612">
            <lane id="L0612_0">
                <vehicle id="F10_0" pos="129.37" speed="18.82"/>
            </lane>
            <lane id="L0612_1"/>
            <lane id="L0612_2"/>
        </edge>
        <edge id="L1211">
            <lane id="L1211_0">
                <vehicle id="F03_0" pos="120.71" speed="15.14"/>
            </lane>
            <lane id="L1211_1">
                <vehicle id="F03_1" pos="6.66" speed="1.56"/>
            </lane>
        </edge>
        <edge id="L1913">
            <lane id="L1913_0">
                <vehicle id="F04_0" pos="10.82" speed="3.89"/>
                <vehicle id="F042_0" pos="35.28" speed="10.37"/>
                <vehicle id="F041_0" pos="74.79" speed="15.53"/>
                <vehicle id="F00_0" pos="127.96" speed="19.05"/>
            </lane>
            <lane id="L1913_1">
                <vehicle id="F00_3" pos="10.17" speed="3.24"/>
                <vehicle id="F00_1" pos="79.81" speed="17.07"/>
            </lane>
            <lane id="L1913_2">
                <vehicle id="F00_2" pos="39.26" speed="11.26"/>
            </lane>
        </edge>
        <edge id="L2115">
            <lane id="L2115_0">
                <vehicle id="F075_0" pos="99.92" speed="10.98"/>
            </lane>
        </edge>