<?xml version="1.0"?>

<<<<<<< HEAD
<!-- generated on Wed Apr 17 18:02:07 2013 by SUMO sumo Version 0.16.0
=======
<!-- generated on 4/17/2013 2:50:17 PM by SUMO gui Version 0.16.0
>>>>>>> 5a3a387a54569652c6e75ca2d73e6fcd20cd517c
<?xml version="1.0" encoding="UTF-8"?>

<configuration xmlns:xsi="http://www.w3.org/2001/XMLSchema-instance" xsi:noNamespaceSchemaLocation="http://sumo.sf.net/xsd/sumo-gui.exeConfiguration.xsd">

    <input>
        <net-file value="C:\Users\Michael\Documents\GitHub\route_alert\SUMO\run10\../grid6_4.net.xml"/>
        <route-files value="C:\Users\Michael\Documents\GitHub\route_alert\SUMO\run10\grid6_4.rou.xml"/>
    </input>

    <output>
        <netstate-dump value="C:\Users\Michael\Documents\GitHub\route_alert\SUMO\run10\netstate6_4.xml"/>
    </output>

    <time>
        <begin value="0"/>
        <end value="200"/>
    </time>

    <processing>
        <time-to-teleport value="-1"/>
    </processing>

</configuration>
-->

<sumo-netstate>
    <timestep time="0.00">
        <edge id="L0102">
            <lane id="L0102_0">
                <vehicle id="F02_0" pos="5.10" speed="0.00"/>
            </lane>
            <lane id="L0102_1"/>
        </edge>
        <edge id="L0107">
            <lane id="L0107_0">
                <vehicle id="F01_0" pos="5.10" speed="0.00"/>
            </lane>
            <lane id="L0107_1"/>
            <lane id="L0107_2"/>
        </edge>
        <edge id="L0208">
            <lane id="L0208_0">
                <vehicle id="F06_0" pos="5.10" speed="0.00"/>
            </lane>
        </edge>
        <edge id="L0309">
            <lane id="L0309_0">
                <vehicle id="F07_0" pos="5.10" speed="0.00"/>
            </lane>
        </edge>
        <edge id="L0511">
            <lane id="L0511_0">
                <vehicle id="F09_0" pos="5.10" speed="0.00"/>
            </lane>
        </edge>
        <edge id="L0612">
            <lane id="L0612_0">
                <vehicle id="F10_0" pos="5.10" speed="0.00"/>
            </lane>
            <lane id="L0612_1"/>
            <lane id="L0612_2"/>
        </edge>
        <edge id="L1211">
            <lane id="L1211_0">
                <vehicle id="F03_0" pos="5.10" speed="0.00"/>
            </lane>
            <lane id="L1211_1"/>
        </edge>
        <edge id="L1314">
            <lane id="L1314_0">
                <vehicle id="F04_0" pos="5.10" speed="0.00"/>
            </lane>
            <lane id="L1314_1"/>
        </edge>
        <edge id="L1812">
            <lane id="L1812_0">
                <vehicle id="F11_0" pos="5.10" speed="0.00"/>
            </lane>
            <lane id="L1812_1"/>
            <lane id="L1812_2"/>
        </edge>
        <edge id="L1913">
            <lane id="L1913_0">
                <vehicle id="F00_0" pos="5.10" speed="0.00"/>
            </lane>
            <lane id="L1913_1"/>
            <lane id="L1913_2"/>
        </edge>
        <edge id="L2115">
            <lane id="L2115_0">
                <vehicle id="F075_0" pos="5.10" speed="0.00"/>
            </lane>
        </edge>
        <edge id="L2216">
            <lane id="L2216_0">
                <vehicle id="F08_0" pos="5.10" speed="0.00"/>
            </lane>
        </edge>
        <edge id="L2423">
            <lane id="L2423_0">
                <vehicle id="F05_0" pos="5.10" speed="0.00"/>
            </lane>
            <lane id="L2423_1"/>
        </edge>
    </timestep>
    <timestep time="1.00">
        <edge id="L0102">
            <lane id="L0102_0">
                <vehicle id="F02_0" pos="7.38" speed="2.28"/>
            </lane>
            <lane id="L0102_1"/>
        </edge>
        <edge id="L0107">
            <lane id="L0107_0">
                <vehicle id="F01_0" pos="6.73" speed="1.63"/>
            </lane>
            <lane id="L0107_1"/>
            <lane id="L0107_2"/>
        </edge>
        <edge id="L0208">
            <lane id="L0208_0">
                <vehicle id="F06_0" pos="6.99" speed="1.89"/>
            </lane>
        </edge>
        <edge id="L0309">
            <lane id="L0309_0">
                <vehicle id="F07_0" pos="6.73" speed="1.63"/>
            </lane>
        </edge>
        <edge id="L0511">
            <lane id="L0511_0">
                <vehicle id="F09_0" pos="7.69" speed="2.59"/>
            </lane>
        </edge>
        <edge id="L0612">
            <lane id="L0612_0">
                <vehicle id="F10_0" pos="7.64" speed="2.54"/>
            </lane>
            <lane id="L0612_1"/>
            <lane id="L0612_2"/>
        </edge>
        <edge id="L1211">
            <lane id="L1211_0">
                <vehicle id="F03_0" pos="6.93" speed="1.83"/>
            </lane>
            <lane id="L1211_1"/>
        </edge>
        <edge id="L1314">
            <lane id="L1314_0">
                <vehicle id="F04_0" pos="7.06" speed="1.96"/>
            </lane>
            <lane id="L1314_1"/>
        </edge>
        <edge id="L1812">
            <lane id="L1812_0">
                <vehicle id="F11_0" pos="7.64" speed="2.54"/>
            </lane>
            <lane id="L1812_1"/>
            <lane id="L1812_2"/>
        </edge>
        <edge id="L1913">
            <lane id="L1913_0">
                <vehicle id="F00_0" pos="6.77" speed="1.67"/>
            </lane>
            <lane id="L1913_1"/>
            <lane id="L1913_2"/>
        </edge>
        <edge id="L2115">
            <lane id="L2115_0">
                <vehicle id="F075_0" pos="6.83" speed="1.73"/>
            </lane>
        </edge>
        <edge id="L2216">
            <lane id="L2216_0">
                <vehicle id="F08_0" pos="7.09" speed="1.99"/>
            </lane>
        </edge>
        <edge id="L2423">
            <lane id="L2423_0">
                <vehicle id="F05_0" pos="6.54" speed="1.44"/>
            </lane>
            <lane id="L2423_1"/>
        </edge>
    </timestep>
    <timestep time="2.00">
        <edge id="L0102">
            <lane id="L0102_0">
                <vehicle id="F02_0" pos="12.20" speed="4.82"/>
            </lane>
            <lane id="L0102_1"/>
        </edge>
        <edge id="L0107">
            <lane id="L0107_0">
                <vehicle id="F01_0" pos="10.08" speed="3.35"/>
            </lane>
            <lane id="L0107_1"/>
            <lane id="L0107_2"/>
        </edge>
        <edge id="L0208">
            <lane id="L0208_0">
                <vehicle id="F06_0" pos="10.82" speed="3.82"/>
            </lane>
        </edge>
        <edge id="L0309">
            <lane id="L0309_0">
                <vehicle id="F07_0" pos="10.56" speed="3.83"/>
            </lane>
        </edge>
        <edge id="L0511">
            <lane id="L0511_0">
                <vehicle id="F09_0" pos="12.06" speed="4.37"/>
            </lane>
        </edge>
        <edge id="L0612">
            <lane id="L0612_0">
                <vehicle id="F10_0" pos="12.37" speed="4.72"/>
            </lane>
            <lane id="L0612_1"/>
            <lane id="L0612_2"/>
        </edge>
        <edge id="L1211">
            <lane id="L1211_0">
                <vehicle id="F03_0" pos="10.23" speed="3.29"/>
            </lane>
            <lane id="L1211_1"/>
        </edge>
        <edge id="L1314">
            <lane id="L1314_0">
                <vehicle id="F04_0" pos="11.54" speed="4.48"/>
            </lane>
            <lane id="L1314_1">
                <vehicle id="F04_1" pos="5.10" speed="0.00"/>
            </lane>
        </edge>
        <edge id="L1812">
            <lane id="L1812_0">
                <vehicle id="F11_0" pos="12.44" speed="4.80"/>
            </lane>
            <lane id="L1812_1"/>
            <lane id="L1812_2"/>
        </edge>
        <edge id="L1913">
            <lane id="L1913_0">
                <vehicle id="F00_0" pos="10.31" speed="3.54"/>
            </lane>
            <lane id="L1913_1"/>
            <lane id="L1913_2"/>
        </edge>
        <edge id="L2115">
            <lane id="L2115_0">
                <vehicle id="F075_0" pos="9.93" speed="3.10"/>
            </lane>
        </edge>
        <edge id="L2216">
            <lane id="L2216_0">
                <vehicle id="F08_0" pos="10.62" speed="3.52"/>
            </lane>
        </edge>
        <edge id="L2423">
            <lane id="L2423_0">
                <vehicle id="F05_0" pos="10.00" speed="3.45"/>
            </lane>
            <lane id="L2423_1"/>
        </edge>
    </timestep>
    <timestep time="3.00">
        <edge id="L0102">
            <lane id="L0102_0">
                <vehicle id="F02_0" pos="18.37" speed="6.17"/>
            </lane>
            <lane id="L0102_1"/>
        </edge>
        <edge id="L0107">
            <lane id="L0107_0">
                <vehicle id="F01_0" pos="15.82" speed="5.74"/>
            </lane>
            <lane id="L0107_1"/>
            <lane id="L0107_2"/>
        </edge>
        <edge id="L0208">
            <lane id="L0208_0">
                <vehicle id="F06_0" pos="17.20" speed="6.39"/>
            </lane>
        </edge>
        <edge id="L0309">
            <lane id="L0309_0">
                <vehicle id="F07_0" pos="16.11" speed="5.54"/>
            </lane>
        </edge>
        <edge id="L0511">
            <lane id="L0511_0">
                <vehicle id="F09_0" pos="18.60" speed="6.54"/>
            </lane>
        </edge>
        <edge id="L0612">
            <lane id="L0612_0">
                <vehicle id="F10_0" pos="18.70" speed="6.33"/>
            </lane>
            <lane id="L0612_1"/>
            <lane id="L0612_2"/>
        </edge>
        <edge id="L1211">
            <lane id="L1211_0">
                <vehicle id="F03_0" pos="15.73" speed="5.50"/>
            </lane>
            <lane id="L1211_1"/>
        </edge>
        <edge id="L1314">
            <lane id="L1314_0">
                <vehicle id="F04_2" pos="5.10" speed="0.00"/>
                <vehicle id="F04_0" pos="18.58" speed="7.04"/>
            </lane>
            <lane id="L1314_1">
                <vehicle id="F04_1" pos="6.55" speed="1.45"/>
            </lane>
        </edge>
        <edge id="L1812">
            <lane id="L1812_0">
                <vehicle id="F11_0" pos="19.53" speed="7.09"/>
            </lane>
            <lane id="L1812_1"/>
            <lane id="L1812_2"/>
        </edge>
        <edge id="L1913">
            <lane id="L1913_0">
                <vehicle id="F00_0" pos="15.74" speed="5.43"/>
            </lane>
            <lane id="L1913_1"/>
            <lane id="L1913_2"/>
        </edge>
        <edge id="L2115">
            <lane id="L2115_0">
                <vehicle id="F075_0" pos="15.47" speed="5.54"/>
            </lane>
        </edge>
        <edge id="L2216">
            <lane id="L2216_0">
                <vehicle id="F08_0" pos="16.58" speed="5.96"/>
            </lane>
        </edge>
        <edge id="L2423">
            <lane id="L2423_0">
                <vehicle id="F05_0" pos="15.53" speed="5.54"/>
            </lane>
            <lane id="L2423_1"/>
        </edge>
    </timestep>
    <timestep time="4.00">
        <edge id="L0102">
            <lane id="L0102_0">
                <vehicle id="F02_0" pos="26.28" speed="7.91"/>
            </lane>
            <lane id="L0102_1"/>
        </edge>
        <edge id="L0107">
            <lane id="L0107_0">
                <vehicle id="F01_0" pos="24.04" speed="8.22"/>
            </lane>
            <lane id="L0107_1"/>
            <lane id="L0107_2"/>
        </edge>
        <edge id="L0208">
            <lane id="L0208_0">
                <vehicle id="F06_0" pos="25.26" speed="8.06"/>
            </lane>
        </edge>
        <edge id="L0309">
            <lane id="L0309_0">
                <vehicle id="F07_0" pos="23.47" speed="7.37"/>
            </lane>
        </edge>
        <edge id="L0511">
            <lane id="L0511_0">
                <vehicle id="F09_0" pos="26.84" speed="8.24"/>
            </lane>
        </edge>
        <edge id="L0612">
            <lane id="L0612_0">
                <vehicle id="F10_0" pos="26.57" speed="7.88"/>
            </lane>
            <lane id="L0612_1"/>
            <lane id="L0612_2"/>
        </edge>
        <edge id="L1211">
            <lane id="L1211_0">
                <vehicle id="F03_0" pos="23.52" speed="7.79"/>
            </lane>
            <lane id="L1211_1"/>
        </edge>
        <edge id="L1314">
            <lane id="L1314_0">
                <vehicle id="F04_2" pos="7.48" speed="2.38"/>
                <vehicle id="F04_0" pos="27.48" speed="8.90"/>
            </lane>
            <lane id="L1314_1">
                <vehicle id="F04_1" pos="10.06" speed="3.51"/>
            </lane>
        </edge>
        <edge id="L1812">
            <lane id="L1812_0">
                <vehicle id="F11_0" pos="28.93" speed="9.40"/>
            </lane>
            <lane id="L1812_1">
                <vehicle id="F11_1" pos="5.10" speed="0.00"/>
            </lane>
            <lane id="L1812_2"/>
        </edge>
        <edge id="L1913">
            <lane id="L1913_0">
                <vehicle id="F00_0" pos="23.43" speed="7.69"/>
            </lane>
            <lane id="L1913_1"/>
            <lane id="L1913_2"/>
        </edge>
        <edge id="L2115">
            <lane id="L2115_0">
                <vehicle id="F075_0" pos="22.39" speed="6.92"/>
            </lane>
        </edge>
        <edge id="L2216">
            <lane id="L2216_0">
                <vehicle id="F08_0" pos="23.89" speed="7.31"/>
            </lane>
        </edge>
        <edge id="L2423">
            <lane id="L2423_0">
                <vehicle id="F05_0" pos="22.42" speed="6.88"/>
            </lane>
            <lane id="L2423_1"/>
        </edge>
    </timestep>
    <timestep time="5.00">
        <edge id="L0102">
            <lane id="L0102_0">
                <vehicle id="F02_0" pos="36.07" speed="9.80"/>
            </lane>
            <lane id="L0102_1"/>
        </edge>
        <edge id="L0107">
            <lane id="L0107_0">
                <vehicle id="F01_0" pos="34.50" speed="10.46"/>
            </lane>
            <lane id="L0107_1"/>
            <lane id="L0107_2"/>
        </edge>
        <edge id="L0208">
            <lane id="L0208_0">
                <vehicle id="F06_0" pos="34.70" speed="9.45"/>
            </lane>
        </edge>
        <edge id="L0309">
            <lane id="L0309_0">
                <vehicle id="F07_0" pos="33.35" speed="9.88"/>
            </lane>
        </edge>
        <edge id="L0511">
            <lane id="L0511_0">
                <vehicle id="F09_0" pos="37.44" speed="10.61"/>
            </lane>
        </edge>
        <edge id="L0612">
            <lane id="L0612_0">
                <vehicle id="F10_0" pos="37.01" speed="10.44"/>
            </lane>
            <lane id="L0612_1"/>
            <lane id="L0612_2"/>
        </edge>
        <edge id="L1211">
            <lane id="L1211_0">
                <vehicle id="F03_0" pos="33.71" speed="10.19"/>
            </lane>
            <lane id="L1211_1"/>
        </edge>
        <edge id="L1314">
            <lane id="L1314_0">
                <vehicle id="F04_2" pos="12.22" speed="4.74"/>
                <vehicle id="F04_0" pos="38.15" speed="10.66"/>
            </lane>
            <lane id="L1314_1">
                <vehicle id="F04_3" pos="5.10" speed="0.00"/>
                <vehicle id="F04_1" pos="15.53" speed="5.47"/>
            </lane>
        </edge>
        <edge id="L1812">
            <lane id="L1812_0">
                <vehicle id="F11_0" pos="39.68" speed="10.76"/>
            </lane>
            <lane id="L1812_1">
                <vehicle id="F11_1" pos="7.30" speed="2.20"/>
            </lane>
            <lane id="L1812_2"/>
        </edge>
        <edge id="L1913">
            <lane id="L1913_0">
                <vehicle id="F00_0" pos="33.50" speed="10.07"/>
            </lane>
            <lane id="L1913_1">
                <vehicle id="F00_1" pos="5.10" speed="0.00"/>
            </lane>
            <lane id="L1913_2"/>
        </edge>
        <edge id="L2115">
            <lane id="L2115_0">
                <vehicle id="F075_0" pos="30.62" speed="8.23"/>
            </lane>
        </edge>
        <edge id="L2216">
            <lane id="L2216_0">
                <vehicle id="F08_0" pos="33.39" speed="9.50"/>
            </lane>
        </edge>
        <edge id="L2423">
            <lane id="L2423_0">
                <vehicle id="F05_0" pos="31.15" speed="8.73"/>
            </lane>
            <lane id="L2423_1"/>
        </edge>
    </timestep>
    <timestep time="6.00">
        <edge id="L0102">
            <lane id="L0102_0">
                <vehicle id="F02_0" pos="47.92" speed="11.85"/>
            </lane>
            <lane id="L0102_1"/>
        </edge>
        <edge id="L0107">
            <lane id="L0107_0">
                <vehicle id="F01_0" pos="46.68" speed="12.18"/>
            </lane>
            <lane id="L0107_1"/>
            <lane id="L0107_2"/>
        </edge>
        <edge id="L0208">
            <lane id="L0208_0">
                <vehicle id="F06_0" pos="45.09" speed="10.38"/>
            </lane>
        </edge>
        <edge id="L0309">
            <lane id="L0309_0">
                <vehicle id="F07_0" pos="44.02" speed="10.67"/>
            </lane>
        </edge>
        <edge id="L0511">
            <lane id="L0511_0">
                <vehicle id="F09_0" pos="47.96" speed="10.51"/>
            </lane>
        </edge>
        <edge id="L0612">
            <lane id="L0612_0">
                <vehicle id="F10_0" pos="49.78" speed="12.76"/>
            </lane>
            <lane id="L0612_1"/>
            <lane id="L0612_2"/>
        </edge>
        <edge id="L1211">
            <lane id="L1211_0">
                <vehicle id="F03_0" pos="46.12" speed="12.41"/>
            </lane>
            <lane id="L1211_1"/>
        </edge>
        <edge id="L1314">
            <lane id="L1314_0">
                <vehicle id="F04_4" pos="5.10" speed="0.00"/>
                <vehicle id="F04_2" pos="18.63" speed="6.40"/>
                <vehicle id="F04_0" pos="50.95" speed="12.81"/>
            </lane>
            <lane id="L1314_1">
                <vehicle id="F04_3" pos="6.96" speed="1.86"/>
                <vehicle id="F04_1" pos="23.33" speed="7.80"/>
            </lane>
        </edge>
        <edge id="L1812">
            <lane id="L1812_0">
                <vehicle id="F11_0" pos="52.94" speed="13.25"/>
            </lane>
            <lane id="L1812_1">
                <vehicle id="F11_1" pos="11.99" speed="4.69"/>
            </lane>
            <lane id="L1812_2"/>
        </edge>
        <edge id="L1913">
            <lane id="L1913_0">
                <vehicle id="F00_0" pos="46.10" speed="12.61"/>
            </lane>
            <lane id="L1913_1">
                <vehicle id="F00_1" pos="7.26" speed="2.16"/>
            </lane>
            <lane id="L1913_2"/>
        </edge>
        <edge id="L2115">
            <lane id="L2115_0">
                <vehicle id="F075_0" pos="40.37" speed="9.76"/>
            </lane>
        </edge>
        <edge id="L2216">
            <lane id="L2216_0">
                <vehicle id="F08_0" pos="43.81" speed="10.42"/>
            </lane>
        </edge>
        <edge id="L2423">
            <lane id="L2423_0">
                <vehicle id="F05_0" pos="42.24" speed="11.10"/>
            </lane>
            <lane id="L2423_1"/>
        </edge>
    </timestep>
    <timestep time="7.00">
        <edge id="L0102">
            <lane id="L0102_0">
                <vehicle id="F02_0" pos="61.23" speed="13.31"/>
            </lane>
            <lane id="L0102_1"/>
        </edge>
        <edge id="L0107">
            <lane id="L0107_0">
                <vehicle id="F01_0" pos="60.86" speed="14.19"/>
            </lane>
            <lane id="L0107_1"/>
            <lane id="L0107_2"/>
        </edge>
        <edge id="L0208">
            <lane id="L0208_0">
                <vehicle id="F06_0" pos="55.52" speed="10.43"/>
            </lane>
        </edge>
        <edge id="L0309">
            <lane id="L0309_0">
                <vehicle id="F07_0" pos="53.94" speed="9.92"/>
            </lane>
        </edge>
        <edge id="L0511">
            <lane id="L0511_0">
                <vehicle id="F09_0" pos="58.75" speed="10.79"/>
            </lane>
        </edge>
        <edge id="L0612">
            <lane id="L0612_0">
                <vehicle id="F10_0" pos="64.22" speed="14.44"/>
            </lane>
            <lane id="L0612_1"/>
            <lane id="L0612_2"/>
        </edge>
        <edge id="L1211">
            <lane id="L1211_0">
                <vehicle id="F03_0" pos="60.59" speed="14.46"/>
            </lane>
            <lane id="L1211_1"/>
        </edge>
        <edge id="L1314">
            <lane id="L1314_0">
                <vehicle id="F04_4" pos="6.89" speed="1.79"/>
                <vehicle id="F04_2" pos="26.43" speed="7.80"/>
                <vehicle id="F04_0" pos="65.72" speed="14.77"/>
            </lane>
            <lane id="L1314_1">
                <vehicle id="F04_3" pos="10.16" speed="3.19"/>
                <vehicle id="F04_1" pos="33.70" speed="10.37"/>
            </lane>
        </edge>
        <edge id="L1812">
            <lane id="L1812_0">
                <vehicle id="F11_0" pos="67.65" speed="14.72"/>
            </lane>
            <lane id="L1812_1">
                <vehicle id="F11_1" pos="18.80" speed="6.81"/>
            </lane>
            <lane id="L1812_2"/>
        </edge>
        <edge id="L1913">
            <lane id="L1913_0">
                <vehicle id="F00_0" pos="61.17" speed="15.07"/>
            </lane>
            <lane id="L1913_1">
                <vehicle id="F00_1" pos="11.48" speed="4.22"/>
            </lane>
            <lane id="L1913_2"/>
        </edge>
        <edge id="L2115">
            <lane id="L2115_0">
                <vehicle id="F075_0" pos="51.02" speed="10.65"/>
            </lane>
        </edge>
        <edge id="L2216">
            <lane id="L2216_0">
                <vehicle id="F08_0" pos="54.54" speed="10.73"/>
            </lane>
        </edge>
        <edge id="L2423">
            <lane id="L2423_0">
                <vehicle id="F05_0" pos="55.55" speed="13.30"/>
            </lane>
            <lane id="L2423_1"/>
        </edge>
    </timestep>
    <timestep time="8.00">
        <edge id="L0102">
            <lane id="L0102_0">
                <vehicle id="F02_0" pos="76.82" speed="15.59"/>
            </lane>
            <lane id="L0102_1"/>
        </edge>
        <edge id="L0107">
            <lane id="L0107_0">
                <vehicle id="F01_0" pos="77.02" speed="16.16"/>
            </lane>
            <lane id="L0107_1"/>
            <lane id="L0107_2"/>
        </edge>
        <edge id="L0208">
            <lane id="L0208_0">
                <vehicle id="F06_0" pos="66.19" speed="10.67"/>
            </lane>
        </edge>
        <edge id="L0309">
            <lane id="L0309_0">
                <vehicle id="F07_0" pos="64.24" speed="10.30"/>
            </lane>
        </edge>
        <edge id="L0511">
            <lane id="L0511_0">
                <vehicle id="F09_0" pos="68.66" speed="9.91"/>
            </lane>
        </edge>
        <edge id="L0612">
            <lane id="L0612_0">
                <vehicle id="F10_0" pos="80.77" speed="16.56"/>
            </lane>
            <lane id="L0612_1"/>
            <lane id="L0612_2"/>
        </edge>
        <edge id="L1211">
            <lane id="L1211_0">
                <vehicle id="F03_0" pos="75.09" speed="14.50"/>
            </lane>
            <lane id="L1211_1"/>
        </edge>
        <edge id="L1314">
            <lane id="L1314_0">
                <vehicle id="F04_4" pos="11.11" speed="4.23"/>
                <vehicle id="F04_2" pos="35.91" speed="9.48"/>
                <vehicle id="F04_0" pos="81.18" speed="15.47"/>
            </lane>
            <lane id="L1314_1">
                <vehicle id="F04_5" pos="5.10" speed="0.00"/>
                <vehicle id="F04_3" pos="15.34" speed="5.19"/>
                <vehicle id="F04_1" pos="45.81" speed="12.11"/>
            </lane>
        </edge>
        <edge id="L1812">
            <lane id="L1812_0">
                <vehicle id="F11_0" pos="84.04" speed="16.39"/>
            </lane>
            <lane id="L1812_1">
                <vehicle id="F11_1" pos="28.08" speed="9.28"/>
            </lane>
            <lane id="L1812_2"/>
        </edge>
        <edge id="L1913">
            <lane id="L1913_0">
                <vehicle id="F00_0" pos="78.48" speed="17.31"/>
            </lane>
            <lane id="L1913_1">
                <vehicle id="F00_1" pos="17.38" speed="5.91"/>
            </lane>
            <lane id="L1913_2"/>
        </edge>
        <edge id="L2115">
            <lane id="L2115_0">
                <vehicle id="F075_0" pos="61.10" speed="10.08"/>
            </lane>
        </edge>
        <edge id="L2216">
            <lane id="L2216_0">
                <vehicle id="F08_0" pos="65.52" speed="10.98"/>
            </lane>
        </edge>
        <edge id="L2423">
            <lane id="L2423_0">
                <vehicle id="F05_0" pos="70.18" speed="14.63"/>
            </lane>
            <lane id="L2423_1"/>
        </edge>
    </timestep>
    <timestep time="9.00">
        <edge id="L0102">
            <lane id="L0102_0">
                <vehicle id="F02_0" pos="91.24" speed="14.42"/>
            </lane>
            <lane id="L0102_1"/>
        </edge>
        <edge id="L0107">
            <lane id="L0107_0">
                <vehicle id="F01_0" pos="94.72" speed="17.69"/>
            </lane>
            <lane id="L0107_1"/>
            <lane id="L0107_2"/>
        </edge>
        <edge id="L0208">
            <lane id="L0208_0">
                <vehicle id="F06_0" pos="76.66" speed="10.47"/>
            </lane>
        </edge>
        <edge id="L0309">
            <lane id="L0309_0">
                <vehicle id="F07_0" pos="75.40" speed="11.16"/>
            </lane>
        </edge>
        <edge id="L0511">
            <lane id="L0511_0">
                <vehicle id="F09_0" pos="78.56" speed="9.90"/>
            </lane>
        </edge>
        <edge id="L0612">
            <lane id="L0612_0">
                <vehicle id="F10_0" pos="99.10" speed="18.32"/>
            </lane>
            <lane id="L0612_1"/>
            <lane id="L0612_2"/>
        </edge>
        <edge id="L1211">
            <lane id="L1211_0">
                <vehicle id="F03_0" pos="89.63" speed="14.54"/>
            </lane>
            <lane id="L1211_1"/>
        </edge>
        <edge id="L1314">
            <lane id="L1314_0">
                <vehicle id="F04_4" pos="17.17" speed="6.06"/>
                <vehicle id="F04_2" pos="47.24" speed="11.33"/>
                <vehicle id="F04_0" pos="96.70" speed="15.52"/>
            </lane>
            <lane id="L1314_1">
                <vehicle id="F04_5" pos="6.84" speed="1.74"/>
                <vehicle id="F04_3" pos="22.57" speed="7.23"/>
                <vehicle id="F04_1" pos="59.76" speed="13.94"/>
            </lane>
        </edge>
        <edge id="L1812">
            <lane id="L1812_0">
                <vehicle id="F11_0" pos="102.15" speed="18.10"/>
            </lane>
            <lane id="L1812_1">
                <vehicle id="F11_1" pos="39.52" speed="11.43"/>
            </lane>
            <lane id="L1812_2">
                <vehicle id="F11_2" pos="5.10" speed="0.00"/>
            </lane>
        </edge>
        <edge id="L1913">
            <lane id="L1913_0">
                <vehicle id="F00_0" pos="97.89" speed="19.41"/>
            </lane>
            <lane id="L1913_1">
                <vehicle id="F00_1" pos="24.72" speed="7.33"/>
            </lane>
            <lane id="L1913_2"/>
        </edge>
        <edge id="L2115">
            <lane id="L2115_0">
                <vehicle id="F075_0" pos="71.13" speed="10.03"/>
            </lane>
        </edge>
        <edge id="L2216">
            <lane id="L2216_0">
                <vehicle id="F08_0" pos="76.08" speed="10.55"/>
            </lane>
        </edge>
        <edge id="L2423">
            <lane id="L2423_0">
                <vehicle id="F05_0" pos="85.47" speed="15.29"/>
            </lane>
            <lane id="L2423_1"/>
        </edge>
    </timestep>
    <timestep time="10.00">
        <edge id="L0102">
            <lane id="L0102_0">
                <vehicle id="F02_0" pos="105.83" speed="14.58"/>
            </lane>
            <lane id="L0102_1"/>
        </edge>
        <edge id="L0107">
            <lane id="L0107_0">
                <vehicle id="F01_0" pos="113.73" speed="19.01"/>
            </lane>
            <lane id="L0107_1"/>
            <lane id="L0107_2"/>
        </edge>
        <edge id="L0208">
            <lane id="L0208_0">
                <vehicle id="F06_0" pos="87.33" speed="10.67"/>
            </lane>
        </edge>
        <edge id="L0309">
            <lane id="L0309_0">
                <vehicle id="F07_0" pos="85.29" speed="9.88"/>
            </lane>
        </edge>
        <edge id="L0511">
            <lane id="L0511_0">
                <vehicle id="F09_0" pos="89.11" speed="10.55"/>
            </lane>
        </edge>
        <edge id="L0612">
            <lane id="L0612_0">
                <vehicle id="F10_0" pos="119.07" speed="19.97"/>
            </lane>
            <lane id="L0612_1"/>
            <lane id="L0612_2"/>
        </edge>
        <edge id="L1211">
            <lane id="L1211_0">
                <vehicle id="F03_0" pos="104.74" speed="15.11"/>
            </lane>
            <lane id="L1211_1"/>
        </edge>
        <edge id="L1314">
            <lane id="L1314_0">