<?xml version="1.0"?>

<!-- generated on Wed Apr 17 14:42:30 2013 by SUMO sumo Version 0.16.0
<?xml version="1.0" encoding="UTF-8"?>

<configuration xmlns:xsi="http://www.w3.org/2001/XMLSchema-instance" xsi:noNamespaceSchemaLocation="http://sumo.sf.net/xsd/sumoConfiguration.xsd">

    <input>
        <net-file value="../grid6_4.net.xml"/>
        <route-files value="grid6_4.rou.xml"/>
    </input>

    <output>
        <netstate-dump value="netstate6_4.xml"/>
    </output>

    <time>
        <begin value="0"/>
        <end value="200"/>
    </time>

    <processing>
        <time-to-teleport value="-1"/>
    </processing>

</configuration>
-->

<sumo-netstate>
    <timestep time="0.00">
        <edge id="L0102">
            <lane id="L0102_0">
                <vehicle id="F02_0" pos="5.10" speed="0.00"/>
            </lane>
            <lane id="L0102_1"/>
        </edge>
        <edge id="L0107">
            <lane id="L0107_0"/>
            <lane id="L0107_1"/>
            <lane id="L0107_2">
                <vehicle id="F01_0" pos="5.10" speed="0.00"/>
            </lane>
        </edge>
        <edge id="L0208">
            <lane id="L0208_0">
                <vehicle id="F06_0" pos="5.10" speed="0.00"/>
            </lane>
        </edge>
        <edge id="L0309">
            <lane id="L0309_0">
                <vehicle id="F07_0" pos="5.10" speed="0.00"/>
            </lane>
        </edge>
        <edge id="L0511">
            <lane id="L0511_0">
                <vehicle id="F09_0" pos="5.10" speed="0.00"/>
            </lane>
        </edge>
        <edge id="L0612">
            <lane id="L0612_0"/>
            <lane id="L0612_1"/>
            <lane id="L0612_2">
                <vehicle id="F10_0" pos="5.10" speed="0.00"/>
            </lane>
        </edge>
        <edge id="L1211">
            <lane id="L1211_0"/>
            <lane id="L1211_1">
                <vehicle id="F03_0" pos="5.10" speed="0.00"/>
            </lane>
        </edge>
        <edge id="L1314">
            <lane id="L1314_0"/>
            <lane id="L1314_1">
                <vehicle id="F04_0" pos="5.10" speed="0.00"/>
            </lane>
        </edge>
        <edge id="L1913">
            <lane id="L1913_0"/>
            <lane id="L1913_1">
                <vehicle id="F00_0" pos="5.10" speed="0.00"/>
            </lane>
            <lane id="L1913_2"/>
        </edge>
        <edge id="L2115">
            <lane id="L2115_0">
                <vehicle id="F075_0" pos="5.10" speed="0.00"/>
            </lane>
        </edge>
        <edge id="L2216">
            <lane id="L2216_0">
                <vehicle id="F08_0" pos="5.10" speed="0.00"/>
            </lane>
        </edge>
        <edge id="L2418">
            <lane id="L2418_0"/>
            <lane id="L2418_1"/>
            <lane id="L2418_2">
                <vehicle id="F11_0" pos="5.10" speed="0.00"/>
            </lane>
        </edge>
        <edge id="L2423">
            <lane id="L2423_0"/>
            <lane id="L2423_1">
                <vehicle id="F05_0" pos="5.10" speed="0.00"/>
            </lane>
        </edge>
    </timestep>
    <timestep time="1.00">
        <edge id="L0102">
            <lane id="L0102_0">
                <vehicle id="F02_0" pos="7.04" speed="1.94"/>
            </lane>
            <lane id="L0102_1"/>
        </edge>
        <edge id="L0107">
            <lane id="L0107_0"/>
            <lane id="L0107_1"/>
            <lane id="L0107_2">
                <vehicle id="F01_0" pos="6.94" speed="1.84"/>
            </lane>
        </edge>
        <edge id="L0208">
            <lane id="L0208_0">
                <vehicle id="F06_0" pos="7.08" speed="1.98"/>
            </lane>
        </edge>
        <edge id="L0309">
            <lane id="L0309_0">
                <vehicle id="F07_0" pos="6.78" speed="1.68"/>
            </lane>
        </edge>
        <edge id="L0511">
            <lane id="L0511_0">
                <vehicle id="F09_0" pos="6.66" speed="1.56"/>
            </lane>
        </edge>
        <edge id="L0612">
            <lane id="L0612_0"/>
            <lane id="L0612_1"/>
            <lane id="L0612_2">
                <vehicle id="F10_0" pos="6.99" speed="1.89"/>
            </lane>
        </edge>
        <edge id="L1211">
            <lane id="L1211_0"/>
            <lane id="L1211_1">
                <vehicle id="F03_0" pos="6.67" speed="1.57"/>
            </lane>
        </edge>
        <edge id="L1314">
            <lane id="L1314_0"/>
            <lane id="L1314_1">
                <vehicle id="F04_0" pos="7.65" speed="2.55"/>
            </lane>
        </edge>
        <edge id="L1913">
            <lane id="L1913_0"/>
            <lane id="L1913_1">
                <vehicle id="F00_0" pos="7.33" speed="2.23"/>
            </lane>
            <lane id="L1913_2"/>
        </edge>
        <edge id="L2115">
            <lane id="L2115_0">
                <vehicle id="F075_0" pos="7.08" speed="1.98"/>
            </lane>
        </edge>
        <edge id="L2216">
            <lane id="L2216_0">
                <vehicle id="F08_0" pos="7.20" speed="2.10"/>
            </lane>
        </edge>
        <edge id="L2418">
            <lane id="L2418_0"/>
            <lane id="L2418_1"/>
            <lane id="L2418_2">
                <vehicle id="F11_0" pos="7.25" speed="2.15"/>
            </lane>
        </edge>
        <edge id="L2423">
            <lane id="L2423_0"/>
            <lane id="L2423_1">
                <vehicle id="F05_0" pos="7.44" speed="2.34"/>
            </lane>
        </edge>
    </timestep>
    <timestep time="2.00">
        <edge id="L0102">
            <lane id="L0102_0">
                <vehicle id="F02_0" pos="10.73" speed="3.69"/>
            </lane>
            <lane id="L0102_1"/>
        </edge>
        <edge id="L0107">
            <lane id="L0107_0"/>
            <lane id="L0107_1"/>
            <lane id="L0107_2">
                <vehicle id="F01_0" pos="10.22" speed="3.28"/>
            </lane>
        </edge>
        <edge id="L0208">
            <lane id="L0208_0">
                <vehicle id="F06_0" pos="11.60" speed="4.52"/>
            </lane>
        </edge>
        <edge id="L0309">
            <lane id="L0309_0">
                <vehicle id="F07_0" pos="9.88" speed="3.09"/>
            </lane>
        </edge>
        <edge id="L0511">
            <lane id="L0511_0">
                <vehicle id="F09_0" pos="9.87" speed="3.20"/>
            </lane>
        </edge>
        <edge id="L0612">
            <lane id="L0612_0">
                <vehicle id="F13_0" pos="5.10" speed="0.00"/>
            </lane>
            <lane id="L0612_1"/>
            <lane id="L0612_2">
                <vehicle id="F10_0" pos="10.19" speed="3.20"/>
            </lane>
        </edge>
        <edge id="L1211">
            <lane id="L1211_0"/>
            <lane id="L1211_1">
                <vehicle id="F03_0" pos="10.52" speed="3.85"/>
            </lane>
        </edge>
        <edge id="L1314">
            <lane id="L1314_0">
                <vehicle id="F04_1" pos="5.10" speed="0.00"/>
            </lane>
            <lane id="L1314_1">
                <vehicle id="F04_0" pos="11.95" speed="4.30"/>
            </lane>
        </edge>
        <edge id="L1913">
            <lane id="L1913_0"/>
            <lane id="L1913_1">
                <vehicle id="F00_0" pos="11.74" speed="4.42"/>
            </lane>
            <lane id="L1913_2"/>
        </edge>
        <edge id="L2115">
            <lane id="L2115_0">
                <vehicle id="F075_0" pos="11.64" speed="4.56"/>
            </lane>
        </edge>
        <edge id="L2216">
            <lane id="L2216_0">
                <vehicle id="F08_0" pos="11.43" speed="4.24"/>
            </lane>
        </edge>
        <edge id="L2418">
            <lane id="L2418_0"/>
            <lane id="L2418_1"/>
            <lane id="L2418_2">
                <vehicle id="F11_0" pos="11.73" speed="4.47"/>
            </lane>
        </edge>
        <edge id="L2423">
            <lane id="L2423_0"/>
            <lane id="L2423_1">
                <vehicle id="F05_0" pos="12.18" speed="4.74"/>
            </lane>
        </edge>
    </timestep>
    <timestep time="3.00">
        <edge id="L0102">
            <lane id="L0102_0">
                <vehicle id="F02_0" pos="16.71" speed="5.98"/>
            </lane>
            <lane id="L0102_1"/>
        </edge>
        <edge id="L0107">
            <lane id="L0107_0"/>
            <lane id="L0107_1"/>
            <lane id="L0107_2">
                <vehicle id="F01_0" pos="14.90" speed="4.68"/>
            </lane>
        </edge>
        <edge id="L0208">
            <lane id="L0208_0">
                <vehicle id="F06_0" pos="17.55" speed="5.95"/>
            </lane>
        </edge>
        <edge id="L0309">
            <lane id="L0309_0">
                <vehicle id="F07_0" pos="14.91" speed="5.03"/>
            </lane>
        </edge>
        <edge id="L0511">
            <lane id="L0511_0">
                <vehicle id="F09_0" pos="15.14" speed="5.27"/>
            </lane>
        </edge>
        <edge id="L0612">
            <lane id="L0612_0">
                <vehicle id="F13_0" pos="6.95" speed="1.85"/>
            </lane>
            <lane id="L0612_1"/>
            <lane id="L0612_2">
                <vehicle id="F10_0" pos="15.14" speed="4.95"/>
            </lane>
        </edge>
        <edge id="L1211">
            <lane id="L1211_0"/>
            <lane id="L1211_1">
                <vehicle id="F03_0" pos="15.88" speed="5.36"/>
            </lane>
        </edge>
        <edge id="L1314">
            <lane id="L1314_0">
                <vehicle id="F04_1" pos="7.67" speed="2.57"/>
            </lane>
            <lane id="L1314_1">
                <vehicle id="F04_0" pos="18.16" speed="6.21"/>
            </lane>
        </edge>
        <edge id="L1913">
            <lane id="L1913_0"/>
            <lane id="L1913_1">
                <vehicle id="F00_0" pos="18.52" speed="6.78"/>
            </lane>
            <lane id="L1913_2"/>
        </edge>
        <edge id="L2115">
            <lane id="L2115_0">
                <vehicle id="F075_0" pos="18.41" speed="6.77"/>
            </lane>
        </edge>
        <edge id="L2216">
            <lane id="L2216_0">
                <vehicle id="F08_0" pos="17.10" speed="5.66"/>
            </lane>
        </edge>
        <edge id="L2418">
            <lane id="L2418_0"/>
            <lane id="L2418_1"/>
            <lane id="L2418_2">
                <vehicle id="F11_0" pos="18.29" speed="6.56"/>
            </lane>
        </edge>
        <edge id="L2423">
            <lane id="L2423_0"/>
            <lane id="L2423_1">
                <vehicle id="F05_0" pos="18.90" speed="6.73"/>
            </lane>
        </edge>
    </timestep>
    <timestep time="4.00">
        <edge id="L0102">
            <lane id="L0102_0">
                <vehicle id="F02_0" pos="24.12" speed="7.42"/>
            </lane>
            <lane id="L0102_1"/>
        </edge>
        <edge id="L0107">
            <lane id="L0107_0"/>
            <lane id="L0107_1"/>
            <lane id="L0107_2">
                <vehicle id="F01_0" pos="20.93" speed="6.03"/>
            </lane>
        </edge>
        <edge id="L0208">
            <lane id="L0208_0">
                <vehicle id="F06_0" pos="25.69" speed="8.13"/>
            </lane>
        </edge>
        <edge id="L0309">
            <lane id="L0309_0">
                <vehicle id="F07_0" pos="22.44" speed="7.53"/>
            </lane>
        </edge>
        <edge id="L0511">
            <lane id="L0511_0">
                <vehicle id="F09_0" pos="21.91" speed="6.77"/>
            </lane>
        </edge>
        <edge id="L0612">
            <lane id="L0612_0">
                <vehicle id="F13_0" pos="10.98" speed="4.02"/>
            </lane>
            <lane id="L0612_1"/>
            <lane id="L0612_2">
                <vehicle id="F10_0" pos="22.14" speed="7.00"/>
            </lane>
        </edge>
        <edge id="L1211">
            <lane id="L1211_0"/>
            <lane id="L1211_1">
                <vehicle id="F03_0" pos="23.81" speed="7.94"/>
            </lane>
        </edge>
        <edge id="L1314">
            <lane id="L1314_0">
                <vehicle id="F04_1" pos="12.09" speed="4.42"/>
            </lane>
            <lane id="L1314_1">
                <vehicle id="F04_4" pos="5.10" speed="0.00"/>
                <vehicle id="F04_0" pos="26.19" speed="8.03"/>
            </lane>
        </edge>
        <edge id="L1913">
            <lane id="L1913_0"/>
            <lane id="L1913_1">
                <vehicle id="F00_0" pos="26.87" speed="8.35"/>
            </lane>
            <lane id="L1913_2"/>
        </edge>
        <edge id="L2115">
            <lane id="L2115_0">
                <vehicle id="F075_0" pos="27.32" speed="8.92"/>
            </lane>
        </edge>
        <edge id="L2216">
            <lane id="L2216_0">
                <vehicle id="F08_0" pos="25.35" speed="8.25"/>
            </lane>
        </edge>
        <edge id="L2418">
            <lane id="L2418_0"/>
            <lane id="L2418_1"/>
            <lane id="L2418_2">
                <vehicle id="F11_0" pos="26.26" speed="7.98"/>
            </lane>
        </edge>
        <edge id="L2423">
            <lane id="L2423_0"/>
            <lane id="L2423_1">
                <vehicle id="F05_0" pos="26.97" speed="8.06"/>
            </lane>
        </edge>
    </timestep>
    <timestep time="5.00">
        <edge id="L0102">
            <lane id="L0102_0">
                <vehicle id="F02_0" pos="32.97" speed="8.85"/>
            </lane>
            <lane id="L0102_1"/>
        </edge>
        <edge id="L0107">
            <lane id="L0107_0"/>
            <lane id="L0107_1"/>
            <lane id="L0107_2">
                <vehicle id="F01_0" pos="28.57" speed="7.64"/>
            </lane>
        </edge>
        <edge id="L0208">
            <lane id="L0208_0">
                <vehicle id="F06_0" pos="35.65" speed="9.96"/>
            </lane>
        </edge>
        <edge id="L0309">
            <lane id="L0309_0">
                <vehicle id="F07_0" pos="32.24" speed="9.79"/>
            </lane>
        </edge>
        <edge id="L0511">
            <lane id="L0511_0">
                <vehicle id="F09_0" pos="30.39" speed="8.48"/>
            </lane>
        </edge>
        <edge id="L0612">
            <lane id="L0612_0">
                <vehicle id="F13_0" pos="17.52" speed="6.54"/>
            </lane>
            <lane id="L0612_1"/>
            <lane id="L0612_2">
                <vehicle id="F10_0" pos="31.45" speed="9.31"/>
            </lane>
        </edge>
        <edge id="L1211">
            <lane id="L1211_0"/>
            <lane id="L1211_1">
                <vehicle id="F03_0" pos="33.19" speed="9.37"/>
            </lane>
        </edge>
        <edge id="L1314">
            <lane id="L1314_0">
                <vehicle id="F04_5" pos="5.10" speed="0.00"/>
                <vehicle id="F04_1" pos="19.04" speed="6.95"/>
            </lane>
            <lane id="L1314_1">
                <vehicle id="F04_4" pos="6.81" speed="1.71"/>
                <vehicle id="F04_0" pos="35.89" speed="9.71"/>
            </lane>
        </edge>
        <edge id="L1913">
            <lane id="L1913_0"/>
            <lane id="L1913_1">
                <vehicle id="F00_0" pos="37.12" speed="10.25"/>
            </lane>
            <lane id="L1913_2"/>
        </edge>
        <edge id="L2115">
            <lane id="L2115_0">
                <vehicle id="F075_0" pos="38.01" speed="10.69"/>
            </lane>
        </edge>
        <edge id="L2216">
            <lane id="L2216_0">
                <vehicle id="F08_0" pos="35.15" speed="9.79"/>
            </lane>
        </edge>
        <edge id="L2418">
            <lane id="L2418_0"/>
            <lane id="L2418_1"/>
            <lane id="L2418_2">
                <vehicle id="F11_0" pos="36.79" speed="10.52"/>
            </lane>
        </edge>
        <edge id="L2423">
            <lane id="L2423_0"/>
            <lane id="L2423_1">
                <vehicle id="F05_0" pos="37.30" speed="10.34"/>
            </lane>
        </edge>
    </timestep>
    <timestep time="6.00">
        <edge id="L0102">
            <lane id="L0102_0">
                <vehicle id="F02_0" pos="44.27" speed="11.29"/>
            </lane>
            <lane id="L0102_1"/>
        </edge>
        <edge id="L0107">
            <lane id="L0107_0"/>
            <lane id="L0107_1"/>
            <lane id="L0107_2">
                <vehicle id="F01_0" pos="38.12" speed="9.55"/>
            </lane>
        </edge>
        <edge id="L0208">
            <lane id="L0208_0">
                <vehicle id="F06_0" pos="46.15" speed="10.50"/>
            </lane>
        </edge>
        <edge id="L0309">
            <lane id="L0309_0">
                <vehicle id="F07_0" pos="42.95" speed="10.71"/>
            </lane>
        </edge>
        <edge id="L0511">
            <lane id="L0511_0">
                <vehicle id="F09_0" pos="40.37" speed="9.97"/>
            </lane>
        </edge>
        <edge id="L0612">
            <lane id="L0612_0">
                <vehicle id="F13_0" pos="26.55" speed="9.04"/>
            </lane>
            <lane id="L0612_1"/>
            <lane id="L0612_2">
                <vehicle id="F10_0" pos="42.22" speed="10.77"/>
            </lane>
        </edge>
        <edge id="L1211">
            <lane id="L1211_0"/>
            <lane id="L1211_1">
                <vehicle id="F03_0" pos="45.08" speed="11.90"/>
            </lane>
        </edge>
        <edge id="L1314">
            <lane id="L1314_0">
                <vehicle id="F04_5" pos="7.55" speed="2.45"/>
                <vehicle id="F04_1" pos="28.48" speed="9.44"/>
            </lane>
            <lane id="L1314_1">
                <vehicle id="F04_4" pos="9.95" speed="3.14"/>
                <vehicle id="F04_0" pos="46.94" speed="11.04"/>
            </lane>
        </edge>
        <edge id="L1913">
            <lane id="L1913_0"/>
            <lane id="L1913_1">
                <vehicle id="F00_0" pos="49.41" speed="12.30"/>
            </lane>
            <lane id="L1913_2"/>
        </edge>
        <edge id="L2115">
            <lane id="L2115_0">
                <vehicle id="F075_0" pos="48.84" speed="10.83"/>
            </lane>
        </edge>
        <edge id="L2216">
            <lane id="L2216_0">
                <vehicle id="F08_0" pos="45.77" speed="10.62"/>
            </lane>
        </edge>
        <edge id="L2418">
            <lane id="L2418_0"/>
            <lane id="L2418_1"/>
            <lane id="L2418_2">
                <vehicle id="F11_0" pos="48.82" speed="12.03"/>
            </lane>
        </edge>
        <edge id="L2423">
            <lane id="L2423_0"/>
            <lane id="L2423_1">
                <vehicle id="F05_0" pos="49.98" speed="12.67"/>
            </lane>
        </edge>
    </timestep>
    <timestep time="7.00">
        <edge id="L0102">
            <lane id="L0102_0">
                <vehicle id="F02_0" pos="57.73" speed="13.47"/>
            </lane>
            <lane id="L0102_1"/>
        </edge>
        <edge id="L0107">
            <lane id="L0107_0"/>
            <lane id="L0107_1"/>
            <lane id="L0107_2">
                <vehicle id="F01_0" pos="49.32" speed="11.20"/>
            </lane>
        </edge>
        <edge id="L0208">
            <lane id="L0208_0">
                <vehicle id="F06_0" pos="56.23" speed="10.08"/>
            </lane>
        </edge>
        <edge id="L0309">
            <lane id="L0309_0">
                <vehicle id="F07_0" pos="53.94" speed="10.99"/>
            </lane>
        </edge>
        <edge id="L0511">
            <lane id="L0511_0">
                <vehicle id="F09_0" pos="50.80" speed="10.44"/>
            </lane>
        </edge>
        <edge id="L0612">
            <lane id="L0612_0">
                <vehicle id="F13_0" pos="37.08" speed="10.52"/>
            </lane>
            <lane id="L0612_1"/>
            <lane id="L0612_2">
                <vehicle id="F10_0" pos="54.45" speed="12.23"/>
            </lane>
        </edge>
        <edge id="L1211">
            <lane id="L1211_0"/>
            <lane id="L1211_1">
                <vehicle id="F03_0" pos="58.88" speed="13.79"/>
            </lane>
        </edge>
        <edge id="L1314">
            <lane id="L1314_0">
                <vehicle id="F04_5" pos="11.35" speed="3.79"/>
                <vehicle id="F04_1" pos="39.74" speed="11.26"/>
            </lane>
            <lane id="L1314_1">
                <vehicle id="F04_4" pos="14.89" speed="4.94"/>
                <vehicle id="F04_0" pos="60.57" speed="13.64"/>
            </lane>
        </edge>
        <edge id="L1913">
            <lane id="L1913_0"/>
            <lane id="L1913_1">
                <vehicle id="F00_0" pos="63.64" speed="14.22"/>
            </lane>
            <lane id="L1913_2"/>
        </edge>
        <edge id="L2115">
            <lane id="L2115_0">
                <vehicle id="F075_0" pos="60.00" speed="11.16"/>
            </lane>
        </edge>
        <edge id="L2216">
            <lane id="L2216_0">
                <vehicle id="F08_0" pos="56.79" speed="11.02"/>
            </lane>
        </edge>
        <edge id="L2418">
            <lane id="L2418_0"/>
            <lane id="L2418_1"/>
            <lane id="L2418_2">
                <vehicle id="F11_0" pos="62.63" speed="13.81"/>
            </lane>
        </edge>
        <edge id="L2423">
            <lane id="L2423_0"/>
            <lane id="L2423_1">
                <vehicle id="F05_0" pos="63.96" speed="13.99"/>
            </lane>
        </edge>
    </timestep>
    <timestep time="8.00">
        <edge id="L0102">
            <lane id="L0102_0">
                <vehicle id="F02_0" pos="72.83" speed="15.09"/>
            </lane>
            <lane id="L0102_1"/>
        </edge>
        <edge id="L0107">
            <lane id="L0107_0"/>
            <lane id="L0107_1"/>
            <lane id="L0107_2">
                <vehicle id="F01_0" pos="62.57" speed="13.25"/>
            </lane>
        </edge>
        <edge id="L0208">
            <lane id="L0208_0">
                <vehicle id="F06_0" pos="66.74" speed="10.51"/>
            </lane>
        </edge>
        <edge id="L0309">
            <lane id="L0309_0">
                <vehicle id="F07_0" pos="64.44" speed="10.50"/>
            </lane>
        </edge>
        <edge id="L0511">
            <lane id="L0511_0">
                <vehicle id="F09_0" pos="61.28" speed="10.47"/>
            </lane>
        </edge>
        <edge id="L0612">
            <lane id="L0612_0">
                <vehicle id="F13_0" pos="48.96" speed="11.89"/>
            </lane>
            <lane id="L0612_1"/>
            <lane id="L0612_2">
                <vehicle id="F10_0" pos="68.23" speed="13.78"/>
            </lane>
        </edge>
        <edge id="L1211">
            <lane id="L1211_0"/>
            <lane id="L1211_1">
                <vehicle id="F03_0" pos="73.50" speed="14.63"/>
            </lane>
        </edge>
        <edge id="L1314">
            <lane id="L1314_0">
                <vehicle id="F04_2" pos="5.10" speed="0.00"/>
                <vehicle id="F04_5" pos="17.67" speed="6.32"/>
                <vehicle id="F04_1" pos="52.33" speed="12.59"/>
            </lane>
            <lane id="L1314_1">
                <vehicle id="F04_6" pos="5.10" speed="0.00"/>
                <vehicle id="F04_4" pos="21.75" speed="6.85"/>
                <vehicle id="F04_0" pos="75.95" speed="15.38"/>
            </lane>
        </edge>
        <edge id="L1913">
            <lane id="L1913_0"/>
            <lane id="L1913_1">
                <vehicle id="F00_0" pos="79.49" speed="15.85"/>
            </lane>
            <lane id="L1913_2"/>
        </edge>
        <edge id="L2115">
            <lane id="L2115_0">
                <vehicle id="F075_0" pos="70.99" speed="10.98"/>
            </lane>
        </edge>
        <edge id="L2216">
            <lane id="L2216_0">
                <vehicle id="F08_0" pos="67.42" speed="10.63"/>
            </lane>
        </edge>
        <edge id="L2418">
            <lane id="L2418_0"/>
            <lane id="L2418_1"/>
            <lane id="L2418_2">
                <vehicle id="F11_0" pos="78.16" speed="15.53"/>
            </lane>
        </edge>
        <edge id="L2423">
            <lane id="L2423_0"/>
            <lane id="L2423_1">
                <vehicle id="F05_0" pos="78.78" speed="14.81"/>
            </lane>
        </edge>
    </timestep>
    <timestep time="9.00">
        <edge id="L0102">
            <lane id="L0102_0">
                <vehicle id="F02_0" pos="87.23" speed="14.41"/>
            </lane>
            <lane id="L0102_1"/>
        </edge>
        <edge id="L0107">
            <lane id="L0107_0"/>
            <lane id="L0107_1"/>
            <lane id="L0107_2">
                <vehicle id="F01_0" pos="78.09" speed="15.53"/>
            </lane>
        </edge>
        <edge id="L0208">
            <lane id="L0208_0">
                <vehicle id="F06_0" pos="76.79" speed="10.05"/>
            </lane>
        </edge>
        <edge id="L0309">
            <lane id="L0309_0">
                <vehicle id="F07_0" pos="74.41" speed="9.97"/>
            </lane>
        </edge>
        <edge id="L0511">
            <lane id="L0511_0">
                <vehicle id="F09_0" pos="71.95" speed="10.67"/>
            </lane>
        </edge>
        <edge id="L0612">
            <lane id="L0612_0">
                <vehicle id="F13_0" pos="62.65" speed="13.69"/>
            </lane>
            <lane id="L0612_1"/>
            <lane id="L0612_2">
                <vehicle id="F10_0" pos="84.36" speed="16.13"/>
            </lane>
        </edge>
        <edge id="L1211">
            <lane id="L1211_0"/>
            <lane id="L1211_1">
                <vehicle id="F03_0" pos="88.78" speed="15.28"/>
            </lane>
        </edge>
        <edge id="L1314">
            <lane id="L1314_0">
                <vehicle id="F04_2" pos="6.49" speed="1.39"/>
                <vehicle id="F04_5" pos="25.38" speed="7.71"/>
                <vehicle id="F04_1" pos="67.36" speed="15.03"/>
            </lane>
            <lane id="L1314_1">
                <vehicle id="F04_6" pos="6.65" speed="1.55"/>
                <vehicle id="F04_4" pos="31.06" speed="9.31"/>
                <vehicle id="F04_0" pos="90.48" speed="14.53"/>
            </lane>
        </edge>
        <edge id="L1913">
            <lane id="L1913_0"/>
            <lane id="L1913_1">
                <vehicle id="F00_0" pos="97.55" speed="18.06"/>
            </lane>
            <lane id="L1913_2"/>
        </edge>
        <edge id="L2115">
            <lane id="L2115_0">
                <vehicle id="F075_0" pos="81.24" speed="10.25"/>
            </lane>
        </edge>
        <edge id="L2216">
            <lane id="L2216_0">
                <vehicle id="F08_0" pos="78.17" speed="10.75"/>
            </lane>
        </edge>
        <edge id="L2418">
            <lane id="L2418_0"/>
            <lane id="L2418_1"/>
            <lane id="L2418_2">
                <vehicle id="F11_0" pos="96.20" speed="18.05"/>
            </lane>
        </edge>
        <edge id="L2423">
            <lane id="L2423_0"/>
            <lane id="L2423_1">
                <vehicle id="F05_0" pos="94.20" speed="15.42"/>
            </lane>
        </edge>
    </timestep>
    <timestep time="10.00">
        <edge id="L0102">
            <lane id="L0102_0">
                <vehicle id="F02_1" pos="5.10" speed="0.00"/>
                <vehicle id="F02_0" pos="102.48" speed="15.25"/>
            </lane>
            <lane id="L0102_1"/>
        </edge>
        <edge id="L0107">
            <lane id="L0107_0">
                <vehicle id="F01_1" pos="5.10" speed="0.00"/>
            </lane>
            <lane id="L0107_1"/>
            <lane id="L0107_2">
                <vehicle id="F01_0" pos="95.46" speed="17.36"/>
            </lane>
        </edge>
        <edge id="L0208">
            <lane id="L0208_0">
                <vehicle id="F06_0" pos="87.33" speed="10.55"/>
            </lane>
        </edge>
        <edge id="L0309">
            <lane id="L0309_0">
                <vehicle id="F07_1" pos="5.10" speed="0.00"/>
                <vehicle id="F07_0" pos="85.29" speed="10.88"/>
            </lane>
        </edge>
        <edge id="L0511">
            <lane id="L0511_0">
                <vehicle id="F09_1" pos="5.10" speed="0.00"/>
                <vehicle id="F09_0" pos="82.08" speed="10.13"/>
            </lane>
        </edge>
        <edge id="L0612">
            <lane id="L0612_0">
                <vehicle id="F13_0" pos="78.84" speed="16.18"/>
            </lane>
            <lane id="L0612_1"/>
            <lane id="L0612_2">
                <vehicle id="F13_1" pos="5.10" speed="0.00"/>
                <vehicle id="F10_0" pos="102.51" speed="18.15"/>
            </lane>
        </edge>
        <edge id="L1211">
            <lane id="L1211_0"/>
            <lane id="L1211_1">
                <vehicle id="F03_1" pos="5.10" speed="0.00"/>
                <vehicle id="F03_0" pos="104.22" speed="15.44"/>
            </lane>
        </edge>
        <edge id="L1314">
            <lane id="L1314_0">
                <vehicle id="F04_2" pos="9.29" speed="2.80"/>
                <vehicle id="F04_5" pos="34.96" speed="9.58"/>
                <vehicle id="F04_1" pos="81.75" speed="14.40"/>
            </lane>
            <lane id="L1314_1">
                <vehicle id="F04_6" pos="10.24" speed="3.60"/>
                <vehicle id="F04_4" pos="41.69" speed="10.63"/>