<?xml version="1.0"?>

<!-- generated on Wed Apr 17 14:36:10 2013 by SUMO sumo Version 0.16.0
<?xml version="1.0" encoding="UTF-8"?>

<configuration xmlns:xsi="http://www.w3.org/2001/XMLSchema-instance" xsi:noNamespaceSchemaLocation="http://sumo.sf.net/xsd/sumoConfiguration.xsd">

    <input>
        <net-file value="../grid6_4.net.xml"/>
        <route-files value="grid6_4.rou.xml"/>
    </input>

    <output>
        <netstate-dump value="netstate6_4.xml"/>
    </output>

    <time>
        <begin value="0"/>
        <end value="200"/>
    </time>

    <processing>
        <time-to-teleport value="-1"/>
    </processing>

</configuration>
-->

<sumo-netstate>
    <timestep time="0.00">
        <edge id="L0102">
            <lane id="L0102_0"/>
            <lane id="L0102_1">
                <vehicle id="F02_0" pos="5.10" speed="0.00"/>
            </lane>
        </edge>
        <edge id="L0107">
            <lane id="L0107_0">
                <vehicle id="F01_0" pos="5.10" speed="0.00"/>
            </lane>
            <lane id="L0107_1"/>
            <lane id="L0107_2"/>
        </edge>
        <edge id="L0208">
            <lane id="L0208_0">
                <vehicle id="F06_0" pos="5.10" speed="0.00"/>
            </lane>
        </edge>
        <edge id="L0309">
            <lane id="L0309_0">
                <vehicle id="F07_0" pos="5.10" speed="0.00"/>
            </lane>
        </edge>
        <edge id="L0511">
            <lane id="L0511_0">
                <vehicle id="F09_0" pos="5.10" speed="0.00"/>
            </lane>
        </edge>
        <edge id="L0612">
            <lane id="L0612_0"/>
            <lane id="L0612_1">
                <vehicle id="F10_0" pos="5.10" speed="0.00"/>
            </lane>
            <lane id="L0612_2">
                <vehicle id="F13_0" pos="5.10" speed="0.00"/>
            </lane>
        </edge>
        <edge id="L1211">
            <lane id="L1211_0"/>
            <lane id="L1211_1">
                <vehicle id="F03_0" pos="5.10" speed="0.00"/>
            </lane>
        </edge>
        <edge id="L1314">
            <lane id="L1314_0">
                <vehicle id="F04_0" pos="5.10" speed="0.00"/>
            </lane>
            <lane id="L1314_1"/>
        </edge>
        <edge id="L1913">
            <lane id="L1913_0">
                <vehicle id="F00_0" pos="5.10" speed="0.00"/>
            </lane>
            <lane id="L1913_1"/>
            <lane id="L1913_2"/>
        </edge>
        <edge id="L2115">
            <lane id="L2115_0">
                <vehicle id="F075_0" pos="5.10" speed="0.00"/>
            </lane>
        </edge>
        <edge id="L2216">
            <lane id="L2216_0">
                <vehicle id="F08_0" pos="5.10" speed="0.00"/>
            </lane>
        </edge>
        <edge id="L2418">
            <lane id="L2418_0"/>
            <lane id="L2418_1">
                <vehicle id="F11_0" pos="5.10" speed="0.00"/>
            </lane>
            <lane id="L2418_2"/>
        </edge>
        <edge id="L2423">
            <lane id="L2423_0"/>
            <lane id="L2423_1">
                <vehicle id="F05_0" pos="5.10" speed="0.00"/>
            </lane>
        </edge>
    </timestep>
    <timestep time="1.00">
        <edge id="L0102">
            <lane id="L0102_0"/>
            <lane id="L0102_1">
                <vehicle id="F02_0" pos="7.69" speed="2.59"/>
            </lane>
        </edge>
        <edge id="L0107">
            <lane id="L0107_0">
                <vehicle id="F01_0" pos="6.74" speed="1.64"/>
            </lane>
            <lane id="L0107_1"/>
            <lane id="L0107_2"/>
        </edge>
        <edge id="L0208">
            <lane id="L0208_0">
                <vehicle id="F06_0" pos="7.24" speed="2.14"/>
            </lane>
        </edge>
        <edge id="L0309">
            <lane id="L0309_0">
                <vehicle id="F07_0" pos="6.51" speed="1.41"/>
            </lane>
        </edge>
        <edge id="L0511">
            <lane id="L0511_0">
                <vehicle id="F09_0" pos="6.69" speed="1.59"/>
            </lane>
        </edge>
        <edge id="L0612">
            <lane id="L0612_0"/>
            <lane id="L0612_1">
                <vehicle id="F10_0" pos="6.51" speed="1.41"/>
            </lane>
            <lane id="L0612_2">
                <vehicle id="F13_0" pos="7.64" speed="2.54"/>
            </lane>
        </edge>
        <edge id="L1211">
            <lane id="L1211_0"/>
            <lane id="L1211_1">
                <vehicle id="F03_0" pos="6.85" speed="1.75"/>
            </lane>
        </edge>
        <edge id="L1314">
            <lane id="L1314_0">
                <vehicle id="F04_0" pos="6.54" speed="1.44"/>
            </lane>
            <lane id="L1314_1"/>
        </edge>
        <edge id="L1913">
            <lane id="L1913_0">
                <vehicle id="F00_0" pos="6.41" speed="1.31"/>
            </lane>
            <lane id="L1913_1"/>
            <lane id="L1913_2"/>
        </edge>
        <edge id="L2115">
            <lane id="L2115_0">
                <vehicle id="F075_0" pos="6.74" speed="1.64"/>
            </lane>
        </edge>
        <edge id="L2216">
            <lane id="L2216_0">
                <vehicle id="F08_0" pos="6.66" speed="1.56"/>
            </lane>
        </edge>
        <edge id="L2418">
            <lane id="L2418_0"/>
            <lane id="L2418_1">
                <vehicle id="F11_0" pos="7.39" speed="2.29"/>
            </lane>
            <lane id="L2418_2"/>
        </edge>
        <edge id="L2423">
            <lane id="L2423_0"/>
            <lane id="L2423_1">
                <vehicle id="F05_0" pos="6.85" speed="1.75"/>
            </lane>
        </edge>
    </timestep>
    <timestep time="2.00">
        <edge id="L0102">
            <lane id="L0102_0"/>
            <lane id="L0102_1">
                <vehicle id="F02_0" pos="11.67" speed="3.98"/>
            </lane>
        </edge>
        <edge id="L0107">
            <lane id="L0107_0">
                <vehicle id="F01_0" pos="10.13" speed="3.39"/>
            </lane>
            <lane id="L0107_1"/>
            <lane id="L0107_2"/>
        </edge>
        <edge id="L0208">
            <lane id="L0208_0">
                <vehicle id="F06_0" pos="11.66" speed="4.42"/>
            </lane>
        </edge>
        <edge id="L0309">
            <lane id="L0309_0">
                <vehicle id="F07_0" pos="9.35" speed="2.84"/>
            </lane>
        </edge>
        <edge id="L0511">
            <lane id="L0511_0">
                <vehicle id="F09_0" pos="10.23" speed="3.54"/>
            </lane>
        </edge>
        <edge id="L0612">
            <lane id="L0612_0"/>
            <lane id="L0612_1">
                <vehicle id="F10_0" pos="9.42" speed="2.91"/>
            </lane>
            <lane id="L0612_2">
                <vehicle id="F13_0" pos="12.09" speed="4.45"/>
            </lane>
        </edge>
        <edge id="L1211">
            <lane id="L1211_0"/>
            <lane id="L1211_1">
                <vehicle id="F03_0" pos="10.96" speed="4.11"/>
            </lane>
        </edge>
        <edge id="L1314">
            <lane id="L1314_0">
                <vehicle id="F04_0" pos="10.06" speed="3.52"/>
            </lane>
            <lane id="L1314_1"/>
        </edge>
        <edge id="L1913">
            <lane id="L1913_0">
                <vehicle id="F00_0" pos="9.71" speed="3.30"/>
            </lane>
            <lane id="L1913_1"/>
            <lane id="L1913_2"/>
        </edge>
        <edge id="L2115">
            <lane id="L2115_0">
                <vehicle id="F075_0" pos="10.45" speed="3.71"/>
            </lane>
        </edge>
        <edge id="L2216">
            <lane id="L2216_0">
                <vehicle id="F08_0" pos="10.43" speed="3.77"/>
            </lane>
        </edge>
        <edge id="L2418">
            <lane id="L2418_0"/>
            <lane id="L2418_1">
                <vehicle id="F11_0" pos="11.52" speed="4.14"/>
            </lane>
            <lane id="L2418_2"/>
        </edge>
        <edge id="L2423">
            <lane id="L2423_0"/>
            <lane id="L2423_1">
                <vehicle id="F05_0" pos="11.17" speed="4.32"/>
            </lane>
        </edge>
    </timestep>
    <timestep time="3.00">
        <edge id="L0102">
            <lane id="L0102_0"/>
            <lane id="L0102_1">
                <vehicle id="F02_0" pos="18.23" speed="6.56"/>
            </lane>
        </edge>
        <edge id="L0107">
            <lane id="L0107_0">
                <vehicle id="F01_0" pos="15.34" speed="5.21"/>
            </lane>
            <lane id="L0107_1"/>
            <lane id="L0107_2"/>
        </edge>
        <edge id="L0208">
            <lane id="L0208_0">
                <vehicle id="F06_0" pos="18.13" speed="6.47"/>
            </lane>
        </edge>
        <edge id="L0309">
            <lane id="L0309_0">
                <vehicle id="F07_0" pos="13.54" speed="4.20"/>
            </lane>
        </edge>
        <edge id="L0511">
            <lane id="L0511_0">
                <vehicle id="F09_0" pos="15.21" speed="4.98"/>
            </lane>
        </edge>
        <edge id="L0612">
            <lane id="L0612_0"/>
            <lane id="L0612_1">
                <vehicle id="F10_0" pos="13.91" speed="4.48"/>
            </lane>
            <lane id="L0612_2">
                <vehicle id="F13_0" pos="17.95" speed="5.87"/>
            </lane>
        </edge>
        <edge id="L1211">
            <lane id="L1211_0"/>
            <lane id="L1211_1">
                <vehicle id="F03_0" pos="16.40" speed="5.44"/>
            </lane>
        </edge>
        <edge id="L1314">
            <lane id="L1314_0">
                <vehicle id="F04_0" pos="15.76" speed="5.70"/>
            </lane>
            <lane id="L1314_1">
                <vehicle id="F04_1" pos="5.10" speed="0.00"/>
            </lane>
        </edge>
        <edge id="L1913">
            <lane id="L1913_0">
                <vehicle id="F00_0" pos="14.86" speed="5.16"/>
            </lane>
            <lane id="L1913_1"/>
            <lane id="L1913_2"/>
        </edge>
        <edge id="L2115">
            <lane id="L2115_0">
                <vehicle id="F075_0" pos="16.34" speed="5.89"/>
            </lane>
        </edge>
        <edge id="L2216">
            <lane id="L2216_0">
                <vehicle id="F08_0" pos="16.70" speed="6.27"/>
            </lane>
        </edge>
        <edge id="L2418">
            <lane id="L2418_0"/>
            <lane id="L2418_1">
                <vehicle id="F11_0" pos="17.36" speed="5.84"/>
            </lane>
            <lane id="L2418_2"/>
        </edge>
        <edge id="L2423">
            <lane id="L2423_0"/>
            <lane id="L2423_1">
                <vehicle id="F05_0" pos="16.84" speed="5.68"/>
            </lane>
        </edge>
    </timestep>
    <timestep time="4.00">
        <edge id="L0102">
            <lane id="L0102_0"/>
            <lane id="L0102_1">
                <vehicle id="F02_0" pos="26.50" speed="8.27"/>
            </lane>
        </edge>
        <edge id="L0107">
            <lane id="L0107_0">
                <vehicle id="F01_0" pos="22.45" speed="7.11"/>
            </lane>
            <lane id="L0107_1"/>
            <lane id="L0107_2">
                <vehicle id="F01_1" pos="5.10" speed="0.00"/>
            </lane>
        </edge>
        <edge id="L0208">
            <lane id="L0208_0">
                <vehicle id="F06_0" pos="26.28" speed="8.15"/>
            </lane>
        </edge>
        <edge id="L0309">
            <lane id="L0309_0">
                <vehicle id="F07_0" pos="19.18" speed="5.64"/>
            </lane>
        </edge>
        <edge id="L0511">
            <lane id="L0511_0">
                <vehicle id="F09_0" pos="22.50" speed="7.29"/>
            </lane>
        </edge>
        <edge id="L0612">
            <lane id="L0612_0">
                <vehicle id="F10_0" pos="20.93" speed="7.03"/>
            </lane>
            <lane id="L0612_1"/>
            <lane id="L0612_2">
                <vehicle id="F13_0" pos="26.10" speed="8.14"/>
            </lane>
        </edge>
        <edge id="L1211">
            <lane id="L1211_0"/>
            <lane id="L1211_1">
                <vehicle id="F03_0" pos="24.36" speed="7.96"/>
            </lane>
        </edge>
        <edge id="L1314">
            <lane id="L1314_0">
                <vehicle id="F04_2" pos="5.10" speed="0.00"/>
                <vehicle id="F04_0" pos="23.98" speed="8.22"/>
            </lane>
            <lane id="L1314_1">
                <vehicle id="F04_1" pos="7.69" speed="2.59"/>
            </lane>
        </edge>
        <edge id="L1913">
            <lane id="L1913_0">
                <vehicle id="F00_0" pos="22.43" speed="7.57"/>
            </lane>
            <lane id="L1913_1"/>
            <lane id="L1913_2"/>
        </edge>
        <edge id="L2115">
            <lane id="L2115_0">
                <vehicle id="F075_0" pos="23.84" speed="7.50"/>
            </lane>
        </edge>
        <edge id="L2216">
            <lane id="L2216_0">
                <vehicle id="F08_0" pos="24.39" speed="7.70"/>
            </lane>
        </edge>
        <edge id="L2418">
            <lane id="L2418_0"/>
            <lane id="L2418_1">
                <vehicle id="F11_0" pos="24.68" speed="7.32"/>
            </lane>
            <lane id="L2418_2"/>
        </edge>
        <edge id="L2423">
            <lane id="L2423_0"/>
            <lane id="L2423_1">
                <vehicle id="F05_0" pos="23.83" speed="6.99"/>
            </lane>
        </edge>
    </timestep>
    <timestep time="5.00">
        <edge id="L0102">
            <lane id="L0102_0"/>
            <lane id="L0102_1">
                <vehicle id="F02_0" pos="36.82" speed="10.32"/>
            </lane>
        </edge>
        <edge id="L0107">
            <lane id="L0107_0">
                <vehicle id="F01_0" pos="31.06" speed="8.62"/>
            </lane>
            <lane id="L0107_1"/>
            <lane id="L0107_2">
                <vehicle id="F01_1" pos="6.82" speed="1.72"/>
            </lane>
        </edge>
        <edge id="L0208">
            <lane id="L0208_0">
                <vehicle id="F06_0" pos="35.86" speed="9.58"/>
            </lane>
        </edge>
        <edge id="L0309">
            <lane id="L0309_0">
                <vehicle id="F07_0" pos="26.14" speed="6.97"/>
            </lane>
        </edge>
        <edge id="L0511">
            <lane id="L0511_0">
                <vehicle id="F09_0" pos="32.31" speed="9.81"/>
            </lane>
        </edge>
        <edge id="L0612">
            <lane id="L0612_0">
                <vehicle id="F10_0" pos="30.07" speed="9.13"/>
            </lane>
            <lane id="L0612_1">
                <vehicle id="F13_0" pos="36.71" speed="10.61"/>
            </lane>
            <lane id="L0612_2"/>
        </edge>
        <edge id="L1211">
            <lane id="L1211_0"/>
            <lane id="L1211_1">
                <vehicle id="F03_0" pos="34.81" speed="10.45"/>
            </lane>
        </edge>
        <edge id="L1314">
            <lane id="L1314_0">
                <vehicle id="F04_2" pos="7.55" speed="2.45"/>
                <vehicle id="F04_0" pos="34.69" speed="10.71"/>
            </lane>
            <lane id="L1314_1">
                <vehicle id="F04_1" pos="11.82" speed="4.13"/>
            </lane>
        </edge>
        <edge id="L1913">
            <lane id="L1913_0">
                <vehicle id="F00_0" pos="31.93" speed="9.50"/>
            </lane>
            <lane id="L1913_1"/>
            <lane id="L1913_2">
                <vehicle id="F00_1" pos="5.10" speed="0.00"/>
            </lane>
        </edge>
        <edge id="L2115">
            <lane id="L2115_0">
                <vehicle id="F075_0" pos="32.79" speed="8.95"/>
            </lane>
        </edge>
        <edge id="L2216">
            <lane id="L2216_0">
                <vehicle id="F08_0" pos="34.00" speed="9.61"/>
            </lane>
        </edge>
        <edge id="L2418">
            <lane id="L2418_0"/>
            <lane id="L2418_1">
                <vehicle id="F11_0" pos="34.25" speed="9.57"/>
            </lane>
            <lane id="L2418_2"/>
        </edge>
        <edge id="L2423">
            <lane id="L2423_0"/>
            <lane id="L2423_1">
                <vehicle id="F05_0" pos="33.23" speed="9.40"/>
            </lane>
        </edge>
    </timestep>
    <timestep time="6.00">
        <edge id="L0102">
            <lane id="L0102_0"/>
            <lane id="L0102_1">
                <vehicle id="F02_0" pos="49.08" speed="12.25"/>
            </lane>
        </edge>
        <edge id="L0107">
            <lane id="L0107_0">
                <vehicle id="F01_0" pos="41.46" speed="10.39"/>
            </lane>
            <lane id="L0107_1"/>
            <lane id="L0107_2">
                <vehicle id="F01_1" pos="10.79" speed="3.97"/>
            </lane>
        </edge>
        <edge id="L0208">
            <lane id="L0208_0">
                <vehicle id="F06_0" pos="46.24" speed="10.38"/>
            </lane>
        </edge>
        <edge id="L0309">
            <lane id="L0309_0">
                <vehicle id="F07_0" pos="35.71" speed="9.56"/>
            </lane>
        </edge>
        <edge id="L0511">
            <lane id="L0511_0">
                <vehicle id="F09_0" pos="42.79" speed="10.48"/>
            </lane>
        </edge>
        <edge id="L0612">
            <lane id="L0612_0">
                <vehicle id="F10_0" pos="41.24" speed="11.18"/>
            </lane>
            <lane id="L0612_1">
                <vehicle id="F13_0" pos="48.81" speed="12.10"/>
            </lane>
            <lane id="L0612_2"/>
        </edge>
        <edge id="L1211">
            <lane id="L1211_0"/>
            <lane id="L1211_1">
                <vehicle id="F03_0" pos="46.58" speed="11.77"/>
            </lane>
        </edge>
        <edge id="L1314">
            <lane id="L1314_0">
                <vehicle id="F04_2" pos="11.82" speed="4.27"/>
                <vehicle id="F04_0" pos="46.90" speed="12.20"/>
            </lane>
            <lane id="L1314_1">
                <vehicle id="F04_1" pos="18.24" speed="6.42"/>
            </lane>
        </edge>
        <edge id="L1913">
            <lane id="L1913_0">
                <vehicle id="F00_0" pos="42.77" speed="10.84"/>
            </lane>
            <lane id="L1913_1"/>
            <lane id="L1913_2">
                <vehicle id="F00_1" pos="7.23" speed="2.13"/>
            </lane>
        </edge>
        <edge id="L2115">
            <lane id="L2115_0">
                <vehicle id="F075_0" pos="42.84" speed="10.05"/>
            </lane>
        </edge>
        <edge id="L2216">
            <lane id="L2216_0">
                <vehicle id="F08_0" pos="44.23" speed="10.23"/>
            </lane>
        </edge>
        <edge id="L2418">
            <lane id="L2418_0"/>
            <lane id="L2418_1">
                <vehicle id="F11_0" pos="45.20" speed="10.95"/>
            </lane>
            <lane id="L2418_2"/>
        </edge>
        <edge id="L2423">
            <lane id="L2423_0"/>
            <lane id="L2423_1">
                <vehicle id="F05_0" pos="44.93" speed="11.70"/>
            </lane>
        </edge>
    </timestep>
    <timestep time="7.00">
        <edge id="L0102">
            <lane id="L0102_0"/>
            <lane id="L0102_1">
                <vehicle id="F02_0" pos="63.09" speed="14.01"/>
            </lane>
        </edge>
        <edge id="L0107">
            <lane id="L0107_0">
                <vehicle id="F01_0" pos="53.21" speed="11.76"/>
            </lane>
            <lane id="L0107_1"/>
            <lane id="L0107_2">
                <vehicle id="F01_1" pos="16.61" speed="5.83"/>
            </lane>
        </edge>
        <edge id="L0208">
            <lane id="L0208_0">
                <vehicle id="F06_0" pos="56.54" speed="10.30"/>
            </lane>
        </edge>
        <edge id="L0309">
            <lane id="L0309_0">
                <vehicle id="F07_0" pos="45.91" speed="10.20"/>
            </lane>
        </edge>
        <edge id="L0511">
            <lane id="L0511_0">
                <vehicle id="F09_0" pos="53.28" speed="10.49"/>
            </lane>
        </edge>
        <edge id="L0612">
            <lane id="L0612_0">
                <vehicle id="F13_1" pos="5.10" speed="0.00"/>
                <vehicle id="F10_0" pos="55.00" speed="13.76"/>
            </lane>
            <lane id="L0612_1">
                <vehicle id="F13_0" pos="63.33" speed="14.51"/>
            </lane>
            <lane id="L0612_2"/>
        </edge>
        <edge id="L1211">
            <lane id="L1211_0"/>
            <lane id="L1211_1">
                <vehicle id="F03_0" pos="59.68" speed="13.10"/>
            </lane>
        </edge>
        <edge id="L1314">
            <lane id="L1314_0">
                <vehicle id="F04_3" pos="5.10" speed="0.00"/>
                <vehicle id="F04_2" pos="18.51" speed="6.69"/>
                <vehicle id="F04_0" pos="61.63" speed="14.73"/>
            </lane>
            <lane id="L1314_1">
                <vehicle id="F04_1" pos="27.11" speed="8.87"/>
            </lane>
        </edge>
        <edge id="L1913">
            <lane id="L1913_0">
                <vehicle id="F00_0" pos="56.16" speed="13.39"/>
            </lane>
            <lane id="L1913_1"/>
            <lane id="L1913_2">
                <vehicle id="F00_1" pos="10.87" speed="3.63"/>
            </lane>
        </edge>
        <edge id="L2115">
            <lane id="L2115_0">
                <vehicle id="F075_0" pos="53.75" speed="10.91"/>
            </lane>
        </edge>
        <edge id="L2216">
            <lane id="L2216_0">
                <vehicle id="F08_0" pos="54.38" speed="10.16"/>
            </lane>
        </edge>
        <edge id="L2418">
            <lane id="L2418_0"/>
            <lane id="L2418_1">
                <vehicle id="F11_0" pos="57.69" speed="12.50"/>
            </lane>
            <lane id="L2418_2"/>
        </edge>
        <edge id="L2423">
            <lane id="L2423_0"/>
            <lane id="L2423_1">
                <vehicle id="F05_0" pos="58.24" speed="13.31"/>
            </lane>
        </edge>
    </timestep>
    <timestep time="8.00">
        <edge id="L0102">
            <lane id="L0102_0"/>
            <lane id="L0102_1">
                <vehicle id="F02_0" pos="78.51" speed="15.42"/>
            </lane>
        </edge>
        <edge id="L0107">
            <lane id="L0107_0">
                <vehicle id="F01_0" pos="66.77" speed="13.56"/>
            </lane>
            <lane id="L0107_1"/>
            <lane id="L0107_2">
                <vehicle id="F01_2" pos="5.10" speed="0.00"/>
                <vehicle id="F01_1" pos="24.33" speed="7.72"/>
            </lane>
        </edge>
        <edge id="L0208">
            <lane id="L0208_0">
                <vehicle id="F06_0" pos="67.63" speed="11.09"/>
            </lane>
        </edge>
        <edge id="L0309">
            <lane id="L0309_0">
                <vehicle id="F07_0" pos="56.71" speed="10.80"/>
            </lane>
        </edge>
        <edge id="L0511">
            <lane id="L0511_0">
                <vehicle id="F09_0" pos="63.41" speed="10.13"/>
            </lane>
        </edge>
        <edge id="L0612">
            <lane id="L0612_0">
                <vehicle id="F13_1" pos="7.50" speed="2.40"/>
                <vehicle id="F10_0" pos="67.53" speed="12.53"/>
                <vehicle id="F13_0" pos="80.10" speed="16.77"/>
            </lane>
            <lane id="L0612_1"/>
            <lane id="L0612_2"/>
        </edge>
        <edge id="L1211">
            <lane id="L1211_0"/>
            <lane id="L1211_1">
                <vehicle id="F03_0" pos="75.17" speed="15.48"/>
            </lane>
        </edge>
        <edge id="L1314">
            <lane id="L1314_0">
                <vehicle id="F04_3" pos="7.54" speed="2.44"/>
                <vehicle id="F04_2" pos="26.59" speed="8.08"/>
                <vehicle id="F04_0" pos="76.06" speed="14.43"/>
            </lane>
            <lane id="L1314_1">
                <vehicle id="F04_4" pos="5.10" speed="0.00"/>
                <vehicle id="F04_1" pos="37.85" speed="10.74"/>
            </lane>
        </edge>
        <edge id="L1913">
            <lane id="L1913_0">
                <vehicle id="F00_0" pos="71.82" speed="15.65"/>
            </lane>
            <lane id="L1913_1"/>
            <lane id="L1913_2">
                <vehicle id="F00_1" pos="16.43" speed="5.56"/>
            </lane>
        </edge>
        <edge id="L2115">
            <lane id="L2115_0">
                <vehicle id="F075_0" pos="64.79" speed="11.04"/>
            </lane>
        </edge>
        <edge id="L2216">
            <lane id="L2216_0">
                <vehicle id="F08_0" pos="64.44" speed="10.06"/>
            </lane>
        </edge>
        <edge id="L2418">
            <lane id="L2418_0"/>
            <lane id="L2418_1">
                <vehicle id="F11_0" pos="72.68" speed="14.99"/>
            </lane>
            <lane id="L2418_2"/>
        </edge>
        <edge id="L2423">
            <lane id="L2423_0"/>
            <lane id="L2423_1">
                <vehicle id="F05_0" pos="72.60" speed="14.36"/>
            </lane>
        </edge>
    </timestep>
    <timestep time="9.00">
        <edge id="L0102">
            <lane id="L0102_0"/>
            <lane id="L0102_1">
                <vehicle id="F02_0" pos="93.61" speed="15.10"/>
            </lane>
        </edge>
        <edge id="L0107">
            <lane id="L0107_0">
                <vehicle id="F01_0" pos="81.92" speed="15.14"/>
            </lane>
            <lane id="L0107_1"/>
            <lane id="L0107_2">
                <vehicle id="F01_2" pos="6.49" speed="1.39"/>
                <vehicle id="F01_1" pos="34.15" speed="9.81"/>
            </lane>
        </edge>
        <edge id="L0208">
            <lane id="L0208_0">
                <vehicle id="F06_0" pos="77.53" speed="9.90"/>
            </lane>
        </edge>
        <edge id="L0309">
            <lane id="L0309_0">
                <vehicle id="F07_0" pos="67.58" speed="10.88"/>
            </lane>
        </edge>
        <edge id="L0511">
            <lane id="L0511_0">
                <vehicle id="F09_0" pos="74.37" speed="10.97"/>
            </lane>
        </edge>
        <edge id="L0612">
            <lane id="L0612_0">
                <vehicle id="F13_1" pos="11.58" speed="4.08"/>
                <vehicle id="F10_0" pos="80.72" speed="13.19"/>
                <vehicle id="F13_0" pos="98.27" speed="18.17"/>
            </lane>
            <lane id="L0612_1"/>
            <lane id="L0612_2"/>
        </edge>
        <edge id="L1211">
            <lane id="L1211_0"/>
            <lane id="L1211_1">
                <vehicle id="F03_0" pos="90.44" speed="15.27"/>
            </lane>
        </edge>
        <edge id="L1314">
            <lane id="L1314_0">
                <vehicle id="F04_3" pos="11.33" speed="3.79"/>
                <vehicle id="F04_2" pos="37.17" speed="10.58"/>
                <vehicle id="F04_0" pos="91.46" speed="15.40"/>
            </lane>
            <lane id="L1314_1">
                <vehicle id="F04_4" pos="6.57" speed="1.47"/>
                <vehicle id="F04_1" pos="50.33" speed="12.48"/>
            </lane>
        </edge>
        <edge id="L1913">
            <lane id="L1913_0">
                <vehicle id="F00_0" pos="89.34" speed="17.52"/>
            </lane>
            <lane id="L1913_1"/>
            <lane id="L1913_2">
                <vehicle id="F00_1" pos="23.46" speed="7.03"/>
            </lane>
        </edge>
        <edge id="L2115">
            <lane id="L2115_0">
                <vehicle id="F075_0" pos="75.39" speed="10.60"/>
            </lane>
        </edge>
        <edge id="L2216">
            <lane id="L2216_0">
                <vehicle id="F08_0" pos="74.86" speed="10.42"/>
            </lane>
        </edge>
        <edge id="L2418">
            <lane id="L2418_0"/>
            <lane id="L2418_1">
                <vehicle id="F11_0" pos="89.07" speed="16.39"/>
            </lane>
            <lane id="L2418_2"/>
        </edge>
        <edge id="L2423">
            <lane id="L2423_0"/>
            <lane id="L2423_1">
                <vehicle id="F05_0" pos="87.71" speed="15.11"/>
            </lane>
        </edge>
    </timestep>
    <timestep time="10.00">
        <edge id="L0102">
            <lane id="L0102_0">
                <vehicle id="F02_1" pos="5.10" speed="0.00"/>
            </lane>
            <lane id="L0102_1">
                <vehicle id="F02_0" pos="108.67" speed="15.06"/>
            </lane>
        </edge>
        <edge id="L0107">
            <lane id="L0107_0">
                <vehicle id="F01_0" pos="98.89" speed="16.97"/>
            </lane>
            <lane id="L0107_1"/>
            <lane id="L0107_2">
                <vehicle id="F01_2" pos="10.17" speed="3.69"/>
                <vehicle id="F01_1" pos="45.51" speed="11.36"/>
            </lane>
        </edge>
        <edge id="L0208">
            <lane id="L0208_0">
                <vehicle id="F06_1" pos="5.10" speed="0.00"/>
                <vehicle id="F06_0" pos="87.62" speed="10.08"/>
            </lane>
        </edge>
        <edge id="L0309">
            <lane id="L0309_0">
                <vehicle id="F07_1" pos="5.10" speed="0.00"/>
                <vehicle id="F07_0" pos="78.41" speed="10.83"/>
            </lane>
        </edge>
        <edge id="L0511">
            <lane id="L0511_0">
                <vehicle id="F09_1" pos="5.10" speed="0.00"/>