<?xml version="1.0"?>

<!-- generated on Thu Apr 25 12:15:44 2013 by SUMO sumo Version 0.16.0
<?xml version="1.0" encoding="UTF-8"?>

<configuration xmlns:xsi="http://www.w3.org/2001/XMLSchema-instance" xsi:noNamespaceSchemaLocation="http://sumo.sf.net/xsd/sumoConfiguration.xsd">

    <input>
        <net-file value="../grid6_4.net.xml"/>
        <route-files value="grid6_4.rou.xml"/>
    </input>

    <output>
        <netstate-dump value="netstate6_4.xml"/>
    </output>

    <time>
        <begin value="0"/>
        <end value="200"/>
    </time>

    <processing>
        <time-to-teleport value="-1"/>
    </processing>

</configuration>
-->

<sumo-netstate>
    <timestep time="0.00">
        <edge id="L0102">
            <lane id="L0102_0">
                <vehicle id="F02_0" pos="5.10" speed="0.00"/>
            </lane>
            <lane id="L0102_1"/>
        </edge>
        <edge id="L0107">
            <lane id="L0107_0">
                <vehicle id="F01_0" pos="5.10" speed="0.00"/>
            </lane>
            <lane id="L0107_1"/>
            <lane id="L0107_2"/>
        </edge>
        <edge id="L0208">
            <lane id="L0208_0">
                <vehicle id="F06_0" pos="5.10" speed="0.00"/>
            </lane>
        </edge>
        <edge id="L0309">
            <lane id="L0309_0">
                <vehicle id="F07_0" pos="5.10" speed="0.00"/>
            </lane>
        </edge>
        <edge id="L0511">
            <lane id="L0511_0">
                <vehicle id="F09_0" pos="5.10" speed="0.00"/>
            </lane>
        </edge>
        <edge id="L0612">
            <lane id="L0612_0">
                <vehicle id="F10_0" pos="5.10" speed="0.00"/>
            </lane>
            <lane id="L0612_1"/>
            <lane id="L0612_2"/>
        </edge>
        <edge id="L1211">
            <lane id="L1211_0">
                <vehicle id="F03_0" pos="5.10" speed="0.00"/>
            </lane>
            <lane id="L1211_1"/>
        </edge>
        <edge id="L1314">
            <lane id="L1314_0">
                <vehicle id="F0825_0" pos="5.10" speed="0.00"/>
            </lane>
            <lane id="L1314_1"/>
        </edge>
        <edge id="L1913">
            <lane id="L1913_0">
                <vehicle id="F00_0" pos="5.10" speed="0.00"/>
            </lane>
            <lane id="L1913_1"/>
            <lane id="L1913_2"/>
        </edge>
        <edge id="L2115">
            <lane id="L2115_0">
                <vehicle id="F075_0" pos="5.10" speed="0.00"/>
            </lane>
        </edge>
        <edge id="L2216">
            <lane id="L2216_0">
                <vehicle id="F0785_0" pos="5.10" speed="0.00"/>
            </lane>
        </edge>
        <edge id="L2418">
            <lane id="L2418_0">
                <vehicle id="F11_0" pos="5.10" speed="0.00"/>
            </lane>
            <lane id="L2418_1"/>
            <lane id="L2418_2"/>
        </edge>
        <edge id="L2423">
            <lane id="L2423_0">
                <vehicle id="F05_0" pos="5.10" speed="0.00"/>
            </lane>
            <lane id="L2423_1"/>
        </edge>
    </timestep>
    <timestep time="1.00">
        <edge id="L0102">
            <lane id="L0102_0">
                <vehicle id="F02_0" pos="7.38" speed="2.28"/>
            </lane>
            <lane id="L0102_1"/>
        </edge>
        <edge id="L0107">
            <lane id="L0107_0">
                <vehicle id="F01_0" pos="6.73" speed="1.63"/>
            </lane>
            <lane id="L0107_1"/>
            <lane id="L0107_2"/>
        </edge>
        <edge id="L0208">
            <lane id="L0208_0">
                <vehicle id="F06_0" pos="6.99" speed="1.89"/>
            </lane>
        </edge>
        <edge id="L0309">
            <lane id="L0309_0">
                <vehicle id="F07_0" pos="6.73" speed="1.63"/>
            </lane>
        </edge>
        <edge id="L0511">
            <lane id="L0511_0">
                <vehicle id="F09_0" pos="7.69" speed="2.59"/>
            </lane>
        </edge>
        <edge id="L0612">
            <lane id="L0612_0">
                <vehicle id="F10_0" pos="7.64" speed="2.54"/>
            </lane>
            <lane id="L0612_1"/>
            <lane id="L0612_2"/>
        </edge>
        <edge id="L1211">
            <lane id="L1211_0">
                <vehicle id="F03_0" pos="6.93" speed="1.83"/>
            </lane>
            <lane id="L1211_1"/>
        </edge>
        <edge id="L1314">
            <lane id="L1314_0">
                <vehicle id="F0825_0" pos="7.06" speed="1.96"/>
            </lane>
            <lane id="L1314_1"/>
        </edge>
        <edge id="L1913">
            <lane id="L1913_0">
                <vehicle id="F00_0" pos="7.64" speed="2.54"/>
            </lane>
            <lane id="L1913_1"/>
            <lane id="L1913_2"/>
        </edge>
        <edge id="L2115">
            <lane id="L2115_0">
                <vehicle id="F075_0" pos="6.83" speed="1.73"/>
            </lane>
        </edge>
        <edge id="L2216">
            <lane id="L2216_0">
                <vehicle id="F0785_0" pos="7.09" speed="1.99"/>
            </lane>
        </edge>
        <edge id="L2418">
            <lane id="L2418_0">
                <vehicle id="F11_0" pos="6.77" speed="1.67"/>
            </lane>
            <lane id="L2418_1"/>
            <lane id="L2418_2"/>
        </edge>
        <edge id="L2423">
            <lane id="L2423_0">
                <vehicle id="F05_0" pos="6.54" speed="1.44"/>
            </lane>
            <lane id="L2423_1"/>
        </edge>
    </timestep>
    <timestep time="2.00">
        <edge id="L0102">
            <lane id="L0102_0">
                <vehicle id="F02_0" pos="12.20" speed="4.82"/>
            </lane>
            <lane id="L0102_1"/>
        </edge>
        <edge id="L0107">
            <lane id="L0107_0">
                <vehicle id="F01_0" pos="10.08" speed="3.35"/>
            </lane>
            <lane id="L0107_1"/>
            <lane id="L0107_2"/>
        </edge>
        <edge id="L0208">
            <lane id="L0208_0">
                <vehicle id="F06_0" pos="10.82" speed="3.82"/>
            </lane>
        </edge>
        <edge id="L0309">
            <lane id="L0309_0">
                <vehicle id="F07_0" pos="10.56" speed="3.83"/>
            </lane>
        </edge>
        <edge id="L0511">
            <lane id="L0511_0">
                <vehicle id="F09_0" pos="12.06" speed="4.37"/>
            </lane>
        </edge>
        <edge id="L0612">
            <lane id="L0612_0">
                <vehicle id="F10_0" pos="12.37" speed="4.72"/>
            </lane>
            <lane id="L0612_1"/>
            <lane id="L0612_2"/>
        </edge>
        <edge id="L1211">
            <lane id="L1211_0">
                <vehicle id="F03_0" pos="10.23" speed="3.29"/>
            </lane>
            <lane id="L1211_1"/>
        </edge>
        <edge id="L1314">
            <lane id="L1314_0">
                <vehicle id="F0825_0" pos="11.54" speed="4.48"/>
            </lane>
            <lane id="L1314_1"/>
        </edge>
        <edge id="L1913">
            <lane id="L1913_0">
                <vehicle id="F00_0" pos="12.44" speed="4.80"/>
            </lane>
            <lane id="L1913_1"/>
            <lane id="L1913_2"/>
        </edge>
        <edge id="L2115">
            <lane id="L2115_0">
                <vehicle id="F075_0" pos="9.93" speed="3.10"/>
            </lane>
        </edge>
        <edge id="L2216">
            <lane id="L2216_0">
                <vehicle id="F0785_0" pos="10.62" speed="3.52"/>
            </lane>
        </edge>
        <edge id="L2418">
            <lane id="L2418_0">
                <vehicle id="F11_0" pos="10.31" speed="3.54"/>
            </lane>
            <lane id="L2418_1"/>
            <lane id="L2418_2"/>
        </edge>
        <edge id="L2423">
            <lane id="L2423_0">
                <vehicle id="F05_0" pos="10.00" speed="3.45"/>
            </lane>
            <lane id="L2423_1"/>
        </edge>
    </timestep>
    <timestep time="3.00">
        <edge id="L0102">
            <lane id="L0102_0">
                <vehicle id="F02_0" pos="19.41" speed="7.21"/>
            </lane>
            <lane id="L0102_1"/>
        </edge>
        <edge id="L0107">
            <lane id="L0107_0">
                <vehicle id="F01_0" pos="15.03" speed="4.95"/>
            </lane>
            <lane id="L0107_1"/>
            <lane id="L0107_2"/>
        </edge>
        <edge id="L0208">
            <lane id="L0208_0">
                <vehicle id="F06_0" pos="16.00" speed="5.18"/>
            </lane>
        </edge>
        <edge id="L0309">
            <lane id="L0309_0">
                <vehicle id="F07_0" pos="16.96" speed="6.39"/>
            </lane>
        </edge>
        <edge id="L0511">
            <lane id="L0511_0">
                <vehicle id="F09_0" pos="18.14" speed="6.08"/>
            </lane>
        </edge>
        <edge id="L0612">
            <lane id="L0612_0">
                <vehicle id="F10_0" pos="19.30" speed="6.93"/>
            </lane>
            <lane id="L0612_1"/>
            <lane id="L0612_2"/>
        </edge>
        <edge id="L1211">
            <lane id="L1211_0">
                <vehicle id="F03_0" pos="16.08" speed="5.85"/>
            </lane>
            <lane id="L1211_1"/>
        </edge>
        <edge id="L1314">
            <lane id="L1314_0">
                <vehicle id="F0825_0" pos="18.32" speed="6.78"/>
            </lane>
            <lane id="L1314_1"/>
        </edge>
        <edge id="L1913">
            <lane id="L1913_0">
                <vehicle id="F041_0" pos="5.10" speed="0.00"/>
                <vehicle id="F00_0" pos="19.13" speed="6.69"/>
            </lane>
            <lane id="L1913_1"/>
            <lane id="L1913_2"/>
        </edge>
        <edge id="L2115">
            <lane id="L2115_0">
                <vehicle id="F0775_0" pos="5.10" speed="0.00"/>
                <vehicle id="F075_0" pos="15.20" speed="5.27"/>
            </lane>
        </edge>
        <edge id="L2216">
            <lane id="L2216_0">
                <vehicle id="F085_0" pos="5.10" speed="0.00"/>
                <vehicle id="F0785_0" pos="16.57" speed="5.95"/>
            </lane>
        </edge>
        <edge id="L2418">
            <lane id="L2418_0">
                <vehicle id="F11_0" pos="15.93" speed="5.62"/>
            </lane>
            <lane id="L2418_1"/>
            <lane id="L2418_2"/>
        </edge>
        <edge id="L2423">
            <lane id="L2423_0">
                <vehicle id="F05_0" pos="14.90" speed="4.90"/>
            </lane>
            <lane id="L2423_1"/>
        </edge>
    </timestep>
    <timestep time="4.00">
        <edge id="L0102">
            <lane id="L0102_0">
                <vehicle id="F02_0" pos="28.16" speed="8.76"/>
            </lane>
            <lane id="L0102_1"/>
        </edge>
        <edge id="L0107">
            <lane id="L0107_0">
                <vehicle id="F01_0" pos="22.27" speed="7.24"/>
            </lane>
            <lane id="L0107_1"/>
            <lane id="L0107_2"/>
        </edge>
        <edge id="L0208">
            <lane id="L0208_0">
                <vehicle id="F06_0" pos="23.66" speed="7.66"/>
            </lane>
        </edge>
        <edge id="L0309">
            <lane id="L0309_0">
                <vehicle id="F07_0" pos="25.08" speed="8.12"/>
            </lane>
        </edge>
        <edge id="L0511">
            <lane id="L0511_0">
                <vehicle id="F09_0" pos="25.89" speed="7.75"/>
            </lane>
        </edge>
        <edge id="L0612">
            <lane id="L0612_0">
                <vehicle id="F10_0" pos="28.09" speed="8.79"/>
            </lane>
            <lane id="L0612_1"/>
            <lane id="L0612_2"/>
        </edge>
        <edge id="L1211">
            <lane id="L1211_0">
                <vehicle id="F03_0" pos="24.31" speed="8.23"/>
            </lane>
            <lane id="L1211_1"/>
        </edge>
        <edge id="L1314">
            <lane id="L1314_0">
                <vehicle id="F0825_0" pos="27.40" speed="9.08"/>
            </lane>
            <lane id="L1314_1"/>
        </edge>
        <edge id="L1913">
            <lane id="L1913_0">
                <vehicle id="F041_0" pos="6.45" speed="1.35"/>
                <vehicle id="F00_0" pos="28.07" speed="8.95"/>
            </lane>
            <lane id="L1913_1"/>
            <lane id="L1913_2"/>
        </edge>
        <edge id="L2115">
            <lane id="L2115_0">
                <vehicle id="F0775_0" pos="6.92" speed="1.82"/>
                <vehicle id="F075_0" pos="22.18" speed="6.97"/>
            </lane>
        </edge>
        <edge id="L2216">
            <lane id="L2216_0">
                <vehicle id="F085_0" pos="6.48" speed="1.38"/>
                <vehicle id="F0785_0" pos="23.88" speed="7.31"/>
            </lane>
        </edge>
        <edge id="L2418">
            <lane id="L2418_0">
                <vehicle id="F11_0" pos="23.62" speed="7.69"/>
            </lane>
            <lane id="L2418_1"/>
            <lane id="L2418_2"/>
        </edge>
        <edge id="L2423">
            <lane id="L2423_0">
                <vehicle id="F05_0" pos="22.23" speed="7.34"/>
            </lane>
            <lane id="L2423_1"/>
        </edge>
    </timestep>
    <timestep time="5.00">
        <edge id="L0102">
            <lane id="L0102_0">
                <vehicle id="F02_0" pos="39.48" speed="11.32"/>
            </lane>
            <lane id="L0102_1"/>
        </edge>
        <edge id="L0107">
            <lane id="L0107_0">
                <vehicle id="F01_0" pos="31.91" speed="9.64"/>
            </lane>
            <lane id="L0107_1"/>
            <lane id="L0107_2"/>
        </edge>
        <edge id="L0208">
            <lane id="L0208_0">
                <vehicle id="F06_0" pos="33.56" speed="9.90"/>
            </lane>
        </edge>
        <edge id="L0309">
            <lane id="L0309_0">
                <vehicle id="F07_0" pos="35.10" speed="10.01"/>
            </lane>
        </edge>
        <edge id="L0511">
            <lane id="L0511_0">
                <vehicle id="F09_0" pos="35.03" speed="9.14"/>
            </lane>
        </edge>
        <edge id="L0612">
            <lane id="L0612_0">
                <vehicle id="F10_0" pos="38.65" speed="10.56"/>
            </lane>
            <lane id="L0612_1"/>
            <lane id="L0612_2"/>
        </edge>
        <edge id="L1211">
            <lane id="L1211_0">
                <vehicle id="F03_0" pos="34.91" speed="10.60"/>
            </lane>
            <lane id="L1211_1"/>
        </edge>
        <edge id="L1314">
            <lane id="L1314_0">
                <vehicle id="F0825_0" pos="37.85" speed="10.44"/>
            </lane>
            <lane id="L1314_1"/>
        </edge>
        <edge id="L1913">
            <lane id="L1913_0">
                <vehicle id="F041_0" pos="9.64" speed="3.19"/>
                <vehicle id="F00_0" pos="39.40" speed="11.33"/>
            </lane>
            <lane id="L1913_1">
                <vehicle id="F00_1" pos="5.10" speed="0.00"/>
            </lane>
            <lane id="L1913_2"/>
        </edge>
        <edge id="L2115">
            <lane id="L2115_0">
                <vehicle id="F0775_0" pos="11.26" speed="4.34"/>
                <vehicle id="F075_0" pos="31.52" speed="9.34"/>
            </lane>
        </edge>
        <edge id="L2216">
            <lane id="L2216_0">
                <vehicle id="F085_0" pos="9.18" speed="2.69"/>
                <vehicle id="F0785_0" pos="33.38" speed="9.50"/>
            </lane>
        </edge>
        <edge id="L2418">
            <lane id="L2418_0">
                <vehicle id="F11_0" pos="33.27" speed="9.65"/>
            </lane>
            <lane id="L2418_1"/>
            <lane id="L2418_2"/>
        </edge>
        <edge id="L2423">
            <lane id="L2423_0">
                <vehicle id="F05_0" pos="31.77" speed="9.54"/>
            </lane>
            <lane id="L2423_1"/>
        </edge>
    </timestep>
    <timestep time="6.00">
        <edge id="L0102">
            <lane id="L0102_0">
                <vehicle id="F02_0" pos="53.03" speed="13.54"/>
            </lane>
            <lane id="L0102_1"/>
        </edge>
        <edge id="L0107">
            <lane id="L0107_0">
                <vehicle id="F01_0" pos="43.69" speed="11.78"/>
            </lane>
            <lane id="L0107_1"/>
            <lane id="L0107_2"/>
        </edge>
        <edge id="L0208">
            <lane id="L0208_0">
                <vehicle id="F06_0" pos="44.47" speed="10.90"/>
            </lane>
        </edge>
        <edge id="L0309">
            <lane id="L0309_0">
                <vehicle id="F07_0" pos="45.39" speed="10.30"/>
            </lane>
        </edge>
        <edge id="L0511">
            <lane id="L0511_0">
                <vehicle id="F09_0" pos="45.66" speed="10.63"/>
            </lane>
        </edge>
        <edge id="L0612">
            <lane id="L0612_0">
                <vehicle id="F10_0" pos="50.86" speed="12.22"/>
            </lane>
            <lane id="L0612_1"/>
            <lane id="L0612_2"/>
        </edge>
        <edge id="L1211">
            <lane id="L1211_0">
                <vehicle id="F03_0" pos="48.00" speed="13.09"/>
            </lane>
            <lane id="L1211_1"/>
        </edge>
        <edge id="L1314">
            <lane id="L1314_0">
                <vehicle id="F0825_0" pos="50.83" speed="12.98"/>
            </lane>
            <lane id="L1314_1"/>
        </edge>
        <edge id="L1913">
            <lane id="L1913_0">
                <vehicle id="F042_0" pos="5.10" speed="0.00"/>
                <vehicle id="F041_0" pos="15.16" speed="5.52"/>
                <vehicle id="F00_0" pos="53.09" speed="13.69"/>
            </lane>
            <lane id="L1913_1">
                <vehicle id="F00_1" pos="7.26" speed="2.16"/>
            </lane>
            <lane id="L1913_2"/>
        </edge>
        <edge id="L2115">
            <lane id="L2115_0">
                <vehicle id="F0775_0" pos="17.40" speed="6.14"/>
                <vehicle id="F075_0" pos="42.19" speed="10.67"/>
            </lane>
        </edge>
        <edge id="L2216">
            <lane id="L2216_0">
                <vehicle id="F08_0" pos="5.10" speed="0.00"/>
                <vehicle id="F085_0" pos="13.81" speed="4.63"/>
                <vehicle id="F0785_0" pos="43.48" speed="10.11"/>
            </lane>
        </edge>
        <edge id="L2418">
            <lane id="L2418_0">
                <vehicle id="F11_0" pos="44.78" speed="11.51"/>
            </lane>
            <lane id="L2418_1"/>
            <lane id="L2418_2"/>
        </edge>
        <edge id="L2423">
            <lane id="L2423_0">
                <vehicle id="F05_0" pos="43.79" speed="12.03"/>
            </lane>
            <lane id="L2423_1"/>
        </edge>
    </timestep>
    <timestep time="7.00">
        <edge id="L0102">
            <lane id="L0102_0">
                <vehicle id="F02_0" pos="68.04" speed="15.01"/>
            </lane>
            <lane id="L0102_1"/>
        </edge>
        <edge id="L0107">
            <lane id="L0107_0">
                <vehicle id="F01_0" pos="56.87" speed="13.18"/>
            </lane>
            <lane id="L0107_1">
                <vehicle id="F01_1" pos="5.10" speed="0.00"/>
            </lane>
            <lane id="L0107_2"/>
        </edge>
        <edge id="L0208">
            <lane id="L0208_0">
                <vehicle id="F06_0" pos="55.09" speed="10.63"/>
            </lane>
        </edge>
        <edge id="L0309">
            <lane id="L0309_0">
                <vehicle id="F07_0" pos="55.65" speed="10.26"/>
            </lane>
        </edge>
        <edge id="L0511">
            <lane id="L0511_0">
                <vehicle id="F09_0" pos="56.25" speed="10.59"/>
            </lane>
        </edge>
        <edge id="L0612">
            <lane id="L0612_0">
                <vehicle id="F10_0" pos="64.87" speed="14.00"/>
            </lane>
            <lane id="L0612_1"/>
            <lane id="L0612_2"/>
        </edge>
        <edge id="L1211">
            <lane id="L1211_0">
                <vehicle id="F03_0" pos="62.51" speed="14.51"/>
            </lane>
            <lane id="L1211_1"/>
        </edge>
        <edge id="L1314">
            <lane id="L1314_0">
                <vehicle id="F0825_0" pos="66.28" speed="15.45"/>
            </lane>
            <lane id="L1314_1"/>
        </edge>
        <edge id="L1913">
            <lane id="L1913_0">
                <vehicle id="F042_0" pos="6.43" speed="1.33"/>
                <vehicle id="F041_0" pos="23.25" speed="8.09"/>
                <vehicle id="F00_0" pos="68.99" speed="15.90"/>
            </lane>
            <lane id="L1913_1">
                <vehicle id="F00_1" pos="11.26" speed="4.00"/>
            </lane>
            <lane id="L1913_2"/>
        </edge>
        <edge id="L2115">
            <lane id="L2115_0">
                <vehicle id="F0775_0" pos="25.00" speed="7.60"/>
                <vehicle id="F075_0" pos="52.63" speed="10.43"/>
            </lane>
        </edge>
        <edge id="L2216">
            <lane id="L2216_0">
                <vehicle id="F08_0" pos="5.73" speed="0.63"/>
                <vehicle id="F085_0" pos="20.65" speed="6.84"/>
                <vehicle id="F0785_0" pos="54.13" speed="10.65"/>
            </lane>
        </edge>
        <edge id="L2418">
            <lane id="L2418_0">
                <vehicle id="F11_0" pos="58.41" speed="13.63"/>
            </lane>
            <lane id="L2418_1"/>
            <lane id="L2418_2"/>
        </edge>
        <edge id="L2423">
            <lane id="L2423_0">
                <vehicle id="F05_0" pos="57.88" speed="14.08"/>
            </lane>
            <lane id="L2423_1"/>
        </edge>
    </timestep>
    <timestep time="8.00">
        <edge id="L0102">
            <lane id="L0102_0">
                <vehicle id="F02_0" pos="82.54" speed="14.50"/>
            </lane>
            <lane id="L0102_1"/>
        </edge>
        <edge id="L0107">
            <lane id="L0107_0">
                <vehicle id="F01_0" pos="72.47" speed="15.60"/>
            </lane>
            <lane id="L0107_1">
                <vehicle id="F01_1" pos="7.25" speed="2.15"/>
            </lane>
            <lane id="L0107_2"/>
        </edge>
        <edge id="L0208">
            <lane id="L0208_0">
                <vehicle id="F06_0" pos="65.79" speed="10.70"/>
            </lane>
        </edge>
        <edge id="L0309">
            <lane id="L0309_0">
                <vehicle id="F07_0" pos="66.21" speed="10.56"/>
            </lane>
        </edge>
        <edge id="L0511">
            <lane id="L0511_0">
                <vehicle id="F09_0" pos="67.37" speed="11.12"/>
            </lane>
        </edge>
        <edge id="L0612">
            <lane id="L0612_0">
                <vehicle id="F10_0" pos="80.54" speed="15.68"/>
            </lane>
            <lane id="L0612_1"/>
            <lane id="L0612_2"/>
        </edge>
        <edge id="L1211">
            <lane id="L1211_0">
                <vehicle id="F03_0" pos="78.00" speed="15.49"/>
            </lane>
            <lane id="L1211_1"/>
        </edge>
        <edge id="L1314">
            <lane id="L1314_0">
                <vehicle id="F0825_0" pos="81.00" speed="14.72"/>
            </lane>
            <lane id="L1314_1"/>
        </edge>
        <edge id="L1913">
            <lane id="L1913_0">
                <vehicle id="F042_0" pos="9.50" speed="3.07"/>
                <vehicle id="F041_0" pos="32.93" speed="9.68"/>
                <vehicle id="F00_0" pos="87.12" speed="18.13"/>
            </lane>
            <lane id="L1913_1">
                <vehicle id="F00_1" pos="16.95" speed="5.69"/>
            </lane>
            <lane id="L1913_2"/>
        </edge>
        <edge id="L2115">
            <lane id="L2115_0">
                <vehicle id="F0775_0" pos="34.70" speed="9.69"/>
                <vehicle id="F075_0" pos="62.93" speed="10.30"/>
            </lane>
        </edge>
        <edge id="L2216">
            <lane id="L2216_0">
                <vehicle id="F08_0" pos="7.68" speed="1.95"/>
                <vehicle id="F085_0" pos="28.99" speed="8.34"/>
                <vehicle id="F0785_0" pos="65.11" speed="10.98"/>
            </lane>
        </edge>
        <edge id="L2418">
            <lane id="L2418_0">
                <vehicle id="F11_0" pos="74.04" speed="15.63"/>
            </lane>
            <lane id="L2418_1">
                <vehicle id="F11_1" pos="5.10" speed="0.00"/>
            </lane>
            <lane id="L2418_2"/>
        </edge>
        <edge id="L2423">
            <lane id="L2423_0">
                <vehicle id="F05_0" pos="73.40" speed="15.52"/>
            </lane>
            <lane id="L2423_1">
                <vehicle id="F05_1" pos="5.10" speed="0.00"/>
            </lane>
        </edge>
    </timestep>
    <timestep time="9.00">
        <edge id="L0102">
            <lane id="L0102_0">
                <vehicle id="F02_0" pos="97.12" speed="14.58"/>
            </lane>
            <lane id="L0102_1">
                <vehicle id="F02_1" pos="5.10" speed="0.00"/>
            </lane>
        </edge>
        <edge id="L0107">
            <lane id="L0107_0">
                <vehicle id="F01_0" pos="89.83" speed="17.36"/>
            </lane>
            <lane id="L0107_1">
                <vehicle id="F01_1" pos="11.15" speed="3.89"/>
            </lane>
            <lane id="L0107_2"/>
        </edge>
        <edge id="L0208">
            <lane id="L0208_0">
                <vehicle id="F06_0" pos="75.74" speed="9.95"/>
            </lane>
        </edge>
        <edge id="L0309">
            <lane id="L0309_0">
                <vehicle id="F07_0" pos="76.67" speed="10.47"/>
            </lane>
        </edge>
        <edge id="L0511">
            <lane id="L0511_0">
                <vehicle id="F09_0" pos="78.53" speed="11.16"/>
            </lane>
        </edge>
        <edge id="L0612">
            <lane id="L0612_0">
                <vehicle id="F10_0" pos="97.71" speed="17.16"/>
            </lane>
            <lane id="L0612_1"/>
            <lane id="L0612_2"/>
        </edge>
        <edge id="L1211">
            <lane id="L1211_0">
                <vehicle id="F03_0" pos="93.52" speed="15.52"/>
            </lane>
            <lane id="L1211_1"/>
        </edge>
        <edge id="L1314">
            <lane id="L1314_0">
                <vehicle id="F0825_0" pos="95.91" speed="14.90"/>
            </lane>
            <lane id="L1314_1"/>
        </edge>
        <edge id="L1913">
            <lane id="L1913_0">
                <vehicle id="F04_0" pos="5.10" speed="0.00"/>
                <vehicle id="F042_0" pos="14.68" speed="5.18"/>
                <vehicle id="F041_0" pos="44.32" speed="11.39"/>
                <vehicle id="F00_0" pos="106.47" speed="19.35"/>
            </lane>
            <lane id="L1913_1">
                <vehicle id="F00_1" pos="24.68" speed="7.73"/>
            </lane>
            <lane id="L1913_2"/>
        </edge>
        <edge id="L2115">
            <lane id="L2115_0">
                <vehicle id="F0775_0" pos="44.60" speed="9.90"/>
                <vehicle id="F075_0" pos="72.96" speed="10.03"/>
            </lane>
        </edge>
        <edge id="L2216">
            <lane id="L2216_0">
                <vehicle id="F08_0" pos="11.61" speed="3.93"/>
                <vehicle id="F085_0" pos="38.76" speed="9.77"/>
                <vehicle id="F0785_0" pos="76.07" speed="10.96"/>
            </lane>
        </edge>
        <edge id="L2418">
            <lane id="L2418_0">
                <vehicle id="F11_0" pos="91.91" speed="17.87"/>
            </lane>
            <lane id="L2418_1">
                <vehicle id="F11_1" pos="7.25" speed="2.15"/>
            </lane>
            <lane id="L2418_2"/>
        </edge>
        <edge id="L2423">
            <lane id="L2423_0">
                <vehicle id="F05_0" pos="88.28" speed="14.88"/>
            </lane>
            <lane id="L2423_1">
                <vehicle id="F05_1" pos="6.52" speed="1.42"/>
            </lane>
        </edge>
    </timestep>
    <timestep time="10.00">
        <edge id="L0102">
            <lane id="L0102_0">
                <vehicle id="F02_0" pos="111.48" speed="14.35"/>
            </lane>
            <lane id="L0102_1">
                <vehicle id="F02_1" pos="7.25" speed="2.15"/>
            </lane>
        </edge>
        <edge id="L0107">
            <lane id="L0107_0">
                <vehicle id="F01_0" pos="109.28" speed="19.45"/>
            </lane>
            <lane id="L0107_1">
                <vehicle id="F01_1" pos="17.20" speed="6.05"/>
            </lane>
            <lane id="L0107_2"/>
        </edge>
        <edge id="L0208">
            <lane id="L0208_0">
                <vehicle id="F06_0" pos="86.29" speed="10.55"/>
            </lane>
        </edge>
        <edge id="L0309">
            <lane id="L0309_0">
                <vehicle id="F07_0" pos="86.63" speed="9.96"/>
            </lane>
        </edge>
        <edge id="L0511">
            <lane id="L0511_0">
                <vehicle id="F09_0" pos="88.69" speed="10.16"/>
            </lane>
        </edge>
        <edge id="L0612">
            <lane id="L0612_0">
                <vehicle id="F10_0" pos="116.40" speed="18.70"/>
            </lane>
            <lane id="L0612_1"/>
            <lane id="L0612_2"/>
        </edge>
        <edge id="L1211">
            <lane id="L1211_0">
                <vehicle id="F03_0" pos="108.06" speed="14.54"/>
            </lane>
            <lane id="L1211_1">