<?xml version="1.0"?>

<!-- generated on Wed Apr 17 14:35:21 2013 by SUMO sumo Version 0.16.0
<?xml version="1.0" encoding="UTF-8"?>

<configuration xmlns:xsi="http://www.w3.org/2001/XMLSchema-instance" xsi:noNamespaceSchemaLocation="http://sumo.sf.net/xsd/sumoConfiguration.xsd">

    <input>
        <net-file value="../grid6_4.net.xml"/>
        <route-files value="grid6_4.rou.xml"/>
    </input>

    <output>
        <netstate-dump value="netstate6_4.xml"/>
    </output>

    <time>
        <begin value="0"/>
        <end value="200"/>
    </time>

    <processing>
        <time-to-teleport value="-1"/>
    </processing>

</configuration>
-->

<sumo-netstate>
    <timestep time="0.00">
        <edge id="L0102">
            <lane id="L0102_0">
                <vehicle id="F02_0" pos="5.10" speed="0.00"/>
            </lane>
            <lane id="L0102_1"/>
        </edge>
        <edge id="L0107">
            <lane id="L0107_0">
                <vehicle id="F01_0" pos="5.10" speed="0.00"/>
            </lane>
            <lane id="L0107_1"/>
            <lane id="L0107_2"/>
        </edge>
        <edge id="L0208">
            <lane id="L0208_0">
                <vehicle id="F06_0" pos="5.10" speed="0.00"/>
            </lane>
        </edge>
        <edge id="L0309">
            <lane id="L0309_0">
                <vehicle id="F07_0" pos="5.10" speed="0.00"/>
            </lane>
        </edge>
        <edge id="L0511">
            <lane id="L0511_0">
                <vehicle id="F09_0" pos="5.10" speed="0.00"/>
            </lane>
        </edge>
        <edge id="L0612">
            <lane id="L0612_0"/>
            <lane id="L0612_1">
                <vehicle id="F13_0" pos="5.10" speed="0.00"/>
            </lane>
            <lane id="L0612_2">
                <vehicle id="F10_0" pos="5.10" speed="0.00"/>
            </lane>
        </edge>
        <edge id="L1211">
            <lane id="L1211_0"/>
            <lane id="L1211_1">
                <vehicle id="F03_0" pos="5.10" speed="0.00"/>
            </lane>
        </edge>
        <edge id="L1314">
            <lane id="L1314_0"/>
            <lane id="L1314_1">
                <vehicle id="F04_0" pos="5.10" speed="0.00"/>
            </lane>
        </edge>
        <edge id="L1913">
            <lane id="L1913_0"/>
            <lane id="L1913_1">
                <vehicle id="F00_0" pos="5.10" speed="0.00"/>
            </lane>
            <lane id="L1913_2"/>
        </edge>
        <edge id="L2115">
            <lane id="L2115_0">
                <vehicle id="F075_0" pos="5.10" speed="0.00"/>
            </lane>
        </edge>
        <edge id="L2216">
            <lane id="L2216_0">
                <vehicle id="F08_0" pos="5.10" speed="0.00"/>
            </lane>
        </edge>
        <edge id="L2418">
            <lane id="L2418_0"/>
            <lane id="L2418_1">
                <vehicle id="F11_0" pos="5.10" speed="0.00"/>
            </lane>
            <lane id="L2418_2"/>
        </edge>
        <edge id="L2423">
            <lane id="L2423_0">
                <vehicle id="F05_0" pos="5.10" speed="0.00"/>
            </lane>
            <lane id="L2423_1"/>
        </edge>
    </timestep>
    <timestep time="1.00">
        <edge id="L0102">
            <lane id="L0102_0">
                <vehicle id="F02_0" pos="6.74" speed="1.64"/>
            </lane>
            <lane id="L0102_1"/>
        </edge>
        <edge id="L0107">
            <lane id="L0107_0">
                <vehicle id="F01_0" pos="6.51" speed="1.41"/>
            </lane>
            <lane id="L0107_1"/>
            <lane id="L0107_2"/>
        </edge>
        <edge id="L0208">
            <lane id="L0208_0">
                <vehicle id="F06_0" pos="7.69" speed="2.59"/>
            </lane>
        </edge>
        <edge id="L0309">
            <lane id="L0309_0">
                <vehicle id="F07_0" pos="7.24" speed="2.14"/>
            </lane>
        </edge>
        <edge id="L0511">
            <lane id="L0511_0">
                <vehicle id="F09_0" pos="6.51" speed="1.41"/>
            </lane>
        </edge>
        <edge id="L0612">
            <lane id="L0612_0"/>
            <lane id="L0612_1">
                <vehicle id="F13_0" pos="7.64" speed="2.54"/>
            </lane>
            <lane id="L0612_2">
                <vehicle id="F10_0" pos="6.85" speed="1.75"/>
            </lane>
        </edge>
        <edge id="L1211">
            <lane id="L1211_0"/>
            <lane id="L1211_1">
                <vehicle id="F03_0" pos="6.54" speed="1.44"/>
            </lane>
        </edge>
        <edge id="L1314">
            <lane id="L1314_0"/>
            <lane id="L1314_1">
                <vehicle id="F04_0" pos="6.41" speed="1.31"/>
            </lane>
        </edge>
        <edge id="L1913">
            <lane id="L1913_0"/>
            <lane id="L1913_1">
                <vehicle id="F00_0" pos="7.39" speed="2.29"/>
            </lane>
            <lane id="L1913_2"/>
        </edge>
        <edge id="L2115">
            <lane id="L2115_0">
                <vehicle id="F075_0" pos="6.69" speed="1.59"/>
            </lane>
        </edge>
        <edge id="L2216">
            <lane id="L2216_0">
                <vehicle id="F08_0" pos="6.74" speed="1.64"/>
            </lane>
        </edge>
        <edge id="L2418">
            <lane id="L2418_0"/>
            <lane id="L2418_1">
                <vehicle id="F11_0" pos="6.85" speed="1.75"/>
            </lane>
            <lane id="L2418_2"/>
        </edge>
        <edge id="L2423">
            <lane id="L2423_0">
                <vehicle id="F05_0" pos="7.29" speed="2.19"/>
            </lane>
            <lane id="L2423_1"/>
        </edge>
    </timestep>
    <timestep time="2.00">
        <edge id="L0102">
            <lane id="L0102_0">
                <vehicle id="F02_0" pos="10.13" speed="3.39"/>
            </lane>
            <lane id="L0102_1"/>
        </edge>
        <edge id="L0107">
            <lane id="L0107_0">
                <vehicle id="F01_0" pos="9.42" speed="2.91"/>
            </lane>
            <lane id="L0107_1"/>
            <lane id="L0107_2"/>
        </edge>
        <edge id="L0208">
            <lane id="L0208_0">
                <vehicle id="F06_0" pos="11.67" speed="3.98"/>
            </lane>
        </edge>
        <edge id="L0309">
            <lane id="L0309_0">
                <vehicle id="F07_0" pos="11.66" speed="4.42"/>
            </lane>
        </edge>
        <edge id="L0511">
            <lane id="L0511_0">
                <vehicle id="F09_0" pos="9.35" speed="2.84"/>
            </lane>
        </edge>
        <edge id="L0612">
            <lane id="L0612_0"/>
            <lane id="L0612_1">
                <vehicle id="F13_0" pos="12.09" speed="4.45"/>
            </lane>
            <lane id="L0612_2">
                <vehicle id="F10_0" pos="10.96" speed="4.11"/>
            </lane>
        </edge>
        <edge id="L1211">
            <lane id="L1211_0"/>
            <lane id="L1211_1">
                <vehicle id="F03_0" pos="10.06" speed="3.52"/>
            </lane>
        </edge>
        <edge id="L1314">
            <lane id="L1314_0">
                <vehicle id="F04_1" pos="5.10" speed="0.00"/>
            </lane>
            <lane id="L1314_1">
                <vehicle id="F04_0" pos="9.71" speed="3.30"/>
            </lane>
        </edge>
        <edge id="L1913">
            <lane id="L1913_0"/>
            <lane id="L1913_1">
                <vehicle id="F00_0" pos="11.52" speed="4.14"/>
            </lane>
            <lane id="L1913_2"/>
        </edge>
        <edge id="L2115">
            <lane id="L2115_0">
                <vehicle id="F075_0" pos="10.23" speed="3.54"/>
            </lane>
        </edge>
        <edge id="L2216">
            <lane id="L2216_0">
                <vehicle id="F08_0" pos="10.45" speed="3.71"/>
            </lane>
        </edge>
        <edge id="L2418">
            <lane id="L2418_0"/>
            <lane id="L2418_1">
                <vehicle id="F11_0" pos="11.17" speed="4.32"/>
            </lane>
            <lane id="L2418_2"/>
        </edge>
        <edge id="L2423">
            <lane id="L2423_0">
                <vehicle id="F05_0" pos="11.03" speed="3.75"/>
            </lane>
            <lane id="L2423_1"/>
        </edge>
    </timestep>
    <timestep time="3.00">
        <edge id="L0102">
            <lane id="L0102_0">
                <vehicle id="F02_0" pos="16.11" speed="5.97"/>
            </lane>
            <lane id="L0102_1"/>
        </edge>
        <edge id="L0107">
            <lane id="L0107_0">
                <vehicle id="F01_0" pos="14.15" speed="4.73"/>
            </lane>
            <lane id="L0107_1"/>
            <lane id="L0107_2"/>
        </edge>
        <edge id="L0208">
            <lane id="L0208_0">
                <vehicle id="F06_0" pos="17.69" speed="6.03"/>
            </lane>
        </edge>
        <edge id="L0309">
            <lane id="L0309_0">
                <vehicle id="F07_0" pos="17.44" speed="5.78"/>
            </lane>
        </edge>
        <edge id="L0511">
            <lane id="L0511_0">
                <vehicle id="F09_0" pos="13.63" speed="4.28"/>
            </lane>
        </edge>
        <edge id="L0612">
            <lane id="L0612_0"/>
            <lane id="L0612_1">
                <vehicle id="F13_0" pos="18.11" speed="6.02"/>
            </lane>
            <lane id="L0612_2">
                <vehicle id="F10_0" pos="16.49" speed="5.53"/>
            </lane>
        </edge>
        <edge id="L1211">
            <lane id="L1211_0"/>
            <lane id="L1211_1">
                <vehicle id="F03_0" pos="14.92" speed="4.86"/>
            </lane>
        </edge>
        <edge id="L1314">
            <lane id="L1314_0">
                <vehicle id="F04_1" pos="6.53" speed="1.43"/>
            </lane>
            <lane id="L1314_1">
                <vehicle id="F04_0" pos="15.18" speed="5.47"/>
            </lane>
        </edge>
        <edge id="L1913">
            <lane id="L1913_0"/>
            <lane id="L1913_1">
                <vehicle id="F00_0" pos="17.52" speed="6.00"/>
            </lane>
            <lane id="L1913_2"/>
        </edge>
        <edge id="L2115">
            <lane id="L2115_0">
                <vehicle id="F075_0" pos="15.95" speed="5.72"/>
            </lane>
        </edge>
        <edge id="L2216">
            <lane id="L2216_0">
                <vehicle id="F08_0" pos="16.65" speed="6.21"/>
            </lane>
        </edge>
        <edge id="L2418">
            <lane id="L2418_0"/>
            <lane id="L2418_1">
                <vehicle id="F11_0" pos="17.18" speed="6.02"/>
            </lane>
            <lane id="L2418_2"/>
        </edge>
        <edge id="L2423">
            <lane id="L2423_0">
                <vehicle id="F05_0" pos="16.14" speed="5.11"/>
            </lane>
            <lane id="L2423_1"/>
        </edge>
    </timestep>
    <timestep time="4.00">
        <edge id="L0102">
            <lane id="L0102_0">
                <vehicle id="F02_0" pos="24.62" speed="8.52"/>
            </lane>
            <lane id="L0102_1"/>
        </edge>
        <edge id="L0107">
            <lane id="L0107_0">
                <vehicle id="F01_0" pos="21.15" speed="7.00"/>
            </lane>
            <lane id="L0107_1">
                <vehicle id="F01_1" pos="5.10" speed="0.00"/>
            </lane>
            <lane id="L0107_2"/>
        </edge>
        <edge id="L0208">
            <lane id="L0208_0">
                <vehicle id="F06_0" pos="25.62" speed="7.92"/>
            </lane>
        </edge>
        <edge id="L0309">
            <lane id="L0309_0">
                <vehicle id="F07_0" pos="24.93" speed="7.49"/>
            </lane>
        </edge>
        <edge id="L0511">
            <lane id="L0511_0">
                <vehicle id="F09_0" pos="19.59" speed="5.97"/>
            </lane>
        </edge>
        <edge id="L0612">
            <lane id="L0612_0"/>
            <lane id="L0612_1">
                <vehicle id="F13_0" pos="26.65" speed="8.54"/>
            </lane>
            <lane id="L0612_2">
                <vehicle id="F13_1" pos="5.10" speed="0.00"/>
                <vehicle id="F10_0" pos="24.54" speed="8.06"/>
            </lane>
        </edge>
        <edge id="L1211">
            <lane id="L1211_0"/>
            <lane id="L1211_1">
                <vehicle id="F03_0" pos="22.19" speed="7.27"/>
            </lane>
        </edge>
        <edge id="L1314">
            <lane id="L1314_0">
                <vehicle id="F04_1" pos="9.45" speed="2.92"/>
            </lane>
            <lane id="L1314_1">
                <vehicle id="F04_0" pos="22.14" speed="6.96"/>
            </lane>
        </edge>
        <edge id="L1913">
            <lane id="L1913_0"/>
            <lane id="L1913_1">
                <vehicle id="F00_0" pos="24.83" speed="7.31"/>
            </lane>
            <lane id="L1913_2"/>
        </edge>
        <edge id="L2115">
            <lane id="L2115_0">
                <vehicle id="F075_0" pos="23.10" speed="7.16"/>
            </lane>
        </edge>
        <edge id="L2216">
            <lane id="L2216_0">
                <vehicle id="F08_0" pos="25.17" speed="8.52"/>
            </lane>
        </edge>
        <edge id="L2418">
            <lane id="L2418_0"/>
            <lane id="L2418_1">
                <vehicle id="F11_0" pos="25.79" speed="8.60"/>
            </lane>
            <lane id="L2418_2"/>
        </edge>
        <edge id="L2423">
            <lane id="L2423_0">
                <vehicle id="F05_0" pos="23.39" speed="7.25"/>
            </lane>
            <lane id="L2423_1"/>
        </edge>
    </timestep>
    <timestep time="5.00">
        <edge id="L0102">
            <lane id="L0102_0">
                <vehicle id="F02_0" pos="35.19" speed="10.57"/>
            </lane>
            <lane id="L0102_1"/>
        </edge>
        <edge id="L0107">
            <lane id="L0107_0">
                <vehicle id="F01_0" pos="29.66" speed="8.51"/>
            </lane>
            <lane id="L0107_1">
                <vehicle id="F01_1" pos="6.82" speed="1.72"/>
            </lane>
            <lane id="L0107_2"/>
        </edge>
        <edge id="L0208">
            <lane id="L0208_0">
                <vehicle id="F06_0" pos="34.97" speed="9.35"/>
            </lane>
        </edge>
        <edge id="L0309">
            <lane id="L0309_0">
                <vehicle id="F07_0" pos="33.75" speed="8.82"/>
            </lane>
        </edge>
        <edge id="L0511">
            <lane id="L0511_0">
                <vehicle id="F09_0" pos="28.08" speed="8.49"/>
            </lane>
        </edge>
        <edge id="L0612">
            <lane id="L0612_0"/>
            <lane id="L0612_1">
                <vehicle id="F13_0" pos="37.52" speed="10.88"/>
            </lane>
            <lane id="L0612_2">
                <vehicle id="F13_1" pos="7.59" speed="2.49"/>
                <vehicle id="F10_0" pos="35.09" speed="10.55"/>
            </lane>
        </edge>
        <edge id="L1211">
            <lane id="L1211_0"/>
            <lane id="L1211_1">
                <vehicle id="F03_0" pos="31.91" speed="9.72"/>
            </lane>
        </edge>
        <edge id="L1314">
            <lane id="L1314_0">
                <vehicle id="F04_2" pos="5.10" speed="0.00"/>
                <vehicle id="F04_1" pos="14.47" speed="5.03"/>
            </lane>
            <lane id="L1314_1">
                <vehicle id="F04_0" pos="31.03" speed="8.89"/>
            </lane>
        </edge>
        <edge id="L1913">
            <lane id="L1913_0"/>
            <lane id="L1913_1">
                <vehicle id="F00_1" pos="5.10" speed="0.00"/>
                <vehicle id="F00_0" pos="34.38" speed="9.55"/>
            </lane>
            <lane id="L1913_2"/>
        </edge>
        <edge id="L2115">
            <lane id="L2115_0">
                <vehicle id="F075_0" pos="31.71" speed="8.61"/>
            </lane>
        </edge>
        <edge id="L2216">
            <lane id="L2216_0">
                <vehicle id="F08_0" pos="35.60" speed="10.43"/>
            </lane>
        </edge>
        <edge id="L2418">
            <lane id="L2418_0"/>
            <lane id="L2418_1">
                <vehicle id="F11_0" pos="36.80" speed="11.01"/>
            </lane>
            <lane id="L2418_2"/>
        </edge>
        <edge id="L2423">
            <lane id="L2423_0">
                <vehicle id="F05_0" pos="32.19" speed="8.79"/>
            </lane>
            <lane id="L2423_1"/>
        </edge>
    </timestep>
    <timestep time="6.00">
        <edge id="L0102">
            <lane id="L0102_0">
                <vehicle id="F02_0" pos="47.55" speed="12.37"/>
            </lane>
            <lane id="L0102_1"/>
        </edge>
        <edge id="L0107">
            <lane id="L0107_0">
                <vehicle id="F01_0" pos="40.10" speed="10.44"/>
            </lane>
            <lane id="L0107_1">
                <vehicle id="F01_1" pos="10.67" speed="3.85"/>
            </lane>
            <lane id="L0107_2"/>
        </edge>
        <edge id="L0208">
            <lane id="L0208_0">
                <vehicle id="F06_0" pos="46.14" speed="11.17"/>
            </lane>
        </edge>
        <edge id="L0309">
            <lane id="L0309_0">
                <vehicle id="F07_0" pos="44.23" speed="10.48"/>
            </lane>
        </edge>
        <edge id="L0511">
            <lane id="L0511_0">
                <vehicle id="F09_0" pos="38.04" speed="9.96"/>
            </lane>
        </edge>
        <edge id="L0612">
            <lane id="L0612_0"/>
            <lane id="L0612_1">
                <vehicle id="F13_0" pos="50.17" speed="12.65"/>
            </lane>
            <lane id="L0612_2">
                <vehicle id="F13_1" pos="11.57" speed="3.98"/>
                <vehicle id="F10_0" pos="46.95" speed="11.86"/>
            </lane>
        </edge>
        <edge id="L1211">
            <lane id="L1211_0"/>
            <lane id="L1211_1">
                <vehicle id="F03_0" pos="43.45" speed="11.54"/>
            </lane>
        </edge>
        <edge id="L1314">
            <lane id="L1314_0">
                <vehicle id="F04_2" pos="6.38" speed="1.28"/>
                <vehicle id="F04_1" pos="21.75" speed="7.28"/>
            </lane>
            <lane id="L1314_1">
                <vehicle id="F04_0" pos="41.26" speed="10.23"/>
            </lane>
        </edge>
        <edge id="L1913">
            <lane id="L1913_0"/>
            <lane id="L1913_1">
                <vehicle id="F00_1" pos="7.40" speed="2.30"/>
                <vehicle id="F00_0" pos="45.32" speed="10.94"/>
            </lane>
            <lane id="L1913_2"/>
        </edge>
        <edge id="L2115">
            <lane id="L2115_0">
                <vehicle id="F075_0" pos="41.94" speed="10.23"/>
            </lane>
        </edge>
        <edge id="L2216">
            <lane id="L2216_0">
                <vehicle id="F08_0" pos="46.36" speed="10.75"/>
            </lane>
        </edge>
        <edge id="L2418">
            <lane id="L2418_0"/>
            <lane id="L2418_1">
                <vehicle id="F11_0" pos="50.10" speed="13.30"/>
            </lane>
            <lane id="L2418_2"/>
        </edge>
        <edge id="L2423">
            <lane id="L2423_0">
                <vehicle id="F05_0" pos="43.02" speed="10.83"/>
            </lane>
            <lane id="L2423_1"/>
        </edge>
    </timestep>
    <timestep time="7.00">
        <edge id="L0102">
            <lane id="L0102_0">
                <vehicle id="F02_0" pos="61.54" speed="13.99"/>
            </lane>
            <lane id="L0102_1"/>
        </edge>
        <edge id="L0107">
            <lane id="L0107_0">
                <vehicle id="F01_0" pos="52.27" speed="12.17"/>
            </lane>
            <lane id="L0107_1">
                <vehicle id="F01_1" pos="16.93" speed="6.26"/>
            </lane>
            <lane id="L0107_2"/>
        </edge>
        <edge id="L0208">
            <lane id="L0208_0">
                <vehicle id="F06_0" pos="56.64" speed="10.49"/>
            </lane>
        </edge>
        <edge id="L0309">
            <lane id="L0309_0">
                <vehicle id="F07_0" pos="55.14" speed="10.91"/>
            </lane>
        </edge>
        <edge id="L0511">
            <lane id="L0511_0">
                <vehicle id="F09_0" pos="48.19" speed="10.16"/>
            </lane>
        </edge>
        <edge id="L0612">
            <lane id="L0612_0">
                <vehicle id="F13_0" pos="64.59" speed="14.41"/>
            </lane>
            <lane id="L0612_1"/>
            <lane id="L0612_2">
                <vehicle id="F13_1" pos="16.88" speed="5.32"/>
                <vehicle id="F10_0" pos="60.18" speed="13.23"/>
            </lane>
        </edge>
        <edge id="L1211">
            <lane id="L1211_0"/>
            <lane id="L1211_1">
                <vehicle id="F03_0" pos="57.52" speed="14.07"/>
            </lane>
        </edge>
        <edge id="L1314">
            <lane id="L1314_0">
                <vehicle id="F04_2" pos="9.51" speed="3.14"/>
                <vehicle id="F04_1" pos="31.61" speed="9.86"/>
            </lane>
            <lane id="L1314_1">
                <vehicle id="F04_0" pos="53.91" speed="12.65"/>
            </lane>
        </edge>
        <edge id="L1913">
            <lane id="L1913_0"/>
            <lane id="L1913_1">
                <vehicle id="F00_1" pos="11.25" speed="3.85"/>
                <vehicle id="F00_0" pos="58.80" speed="13.49"/>
            </lane>
            <lane id="L1913_2"/>
        </edge>
        <edge id="L2115">
            <lane id="L2115_0">
                <vehicle id="F075_0" pos="52.06" speed="10.12"/>
            </lane>
        </edge>
        <edge id="L2216">
            <lane id="L2216_0">
                <vehicle id="F08_0" pos="56.99" speed="10.63"/>
            </lane>
        </edge>
        <edge id="L2418">
            <lane id="L2418_0"/>
            <lane id="L2418_1">
                <vehicle id="F11_0" pos="65.01" speed="14.91"/>
            </lane>
            <lane id="L2418_2"/>
        </edge>
        <edge id="L2423">
            <lane id="L2423_0">
                <vehicle id="F05_0" pos="56.30" speed="13.28"/>
            </lane>
            <lane id="L2423_1"/>
        </edge>
    </timestep>
    <timestep time="8.00">
        <edge id="L0102">
            <lane id="L0102_0">
                <vehicle id="F02_0" pos="76.40" speed="14.85"/>
            </lane>
            <lane id="L0102_1"/>
        </edge>
        <edge id="L0107">
            <lane id="L0107_0">
                <vehicle id="F01_0" pos="66.87" speed="14.60"/>
            </lane>
            <lane id="L0107_1">
                <vehicle id="F01_2" pos="5.10" speed="0.00"/>
                <vehicle id="F01_1" pos="25.11" speed="8.18"/>
            </lane>
            <lane id="L0107_2"/>
        </edge>
        <edge id="L0208">
            <lane id="L0208_0">
                <vehicle id="F06_0" pos="67.59" speed="10.95"/>
            </lane>
        </edge>
        <edge id="L0309">
            <lane id="L0309_0">
                <vehicle id="F07_0" pos="66.23" speed="11.09"/>
            </lane>
        </edge>
        <edge id="L0511">
            <lane id="L0511_0">
                <vehicle id="F09_0" pos="58.99" speed="10.80"/>
            </lane>
        </edge>
        <edge id="L0612">
            <lane id="L0612_0">
                <vehicle id="F13_0" pos="80.92" speed="16.34"/>
            </lane>
            <lane id="L0612_1"/>
            <lane id="L0612_2">
                <vehicle id="F13_2" pos="5.10" speed="0.00"/>
                <vehicle id="F13_1" pos="23.59" speed="6.71"/>
                <vehicle id="F10_0" pos="74.79" speed="14.61"/>
            </lane>
        </edge>
        <edge id="L1211">
            <lane id="L1211_0"/>
            <lane id="L1211_1">
                <vehicle id="F03_0" pos="73.01" speed="15.49"/>
            </lane>
        </edge>
        <edge id="L1314">
            <lane id="L1314_0">
                <vehicle id="F04_2" pos="14.54" speed="5.03"/>
                <vehicle id="F04_1" pos="43.87" speed="12.26"/>
            </lane>
            <lane id="L1314_1">
                <vehicle id="F04_3" pos="5.10" speed="0.00"/>
                <vehicle id="F04_0" pos="68.83" speed="14.91"/>
            </lane>
        </edge>
        <edge id="L1913">
            <lane id="L1913_0"/>
            <lane id="L1913_1">
                <vehicle id="F00_1" pos="16.41" speed="5.16"/>
                <vehicle id="F00_0" pos="74.78" speed="15.98"/>
            </lane>
            <lane id="L1913_2"/>
        </edge>
        <edge id="L2115">
            <lane id="L2115_0">
                <vehicle id="F075_0" pos="62.19" speed="10.13"/>
            </lane>
        </edge>
        <edge id="L2216">
            <lane id="L2216_0">
                <vehicle id="F08_0" pos="68.02" speed="11.04"/>
            </lane>
        </edge>
        <edge id="L2418">
            <lane id="L2418_0"/>
            <lane id="L2418_1">
                <vehicle id="F11_0" pos="81.80" speed="16.79"/>
            </lane>
            <lane id="L2418_2"/>
        </edge>
        <edge id="L2423">
            <lane id="L2423_0">
                <vehicle id="F05_0" pos="71.40" speed="15.10"/>
            </lane>
            <lane id="L2423_1"/>
        </edge>
    </timestep>
    <timestep time="9.00">
        <edge id="L0102">
            <lane id="L0102_0">
                <vehicle id="F02_0" pos="91.03" speed="14.64"/>
            </lane>
            <lane id="L0102_1"/>
        </edge>
        <edge id="L0107">
            <lane id="L0107_0">
                <vehicle id="F01_0" pos="83.69" speed="16.82"/>
            </lane>
            <lane id="L0107_1">
                <vehicle id="F01_2" pos="6.57" speed="1.47"/>
                <vehicle id="F01_1" pos="34.68" speed="9.57"/>
            </lane>
            <lane id="L0107_2"/>
        </edge>
        <edge id="L0208">
            <lane id="L0208_0">
                <vehicle id="F06_0" pos="78.22" speed="10.63"/>
            </lane>
        </edge>
        <edge id="L0309">
            <lane id="L0309_0">
                <vehicle id="F07_0" pos="76.13" speed="9.90"/>
            </lane>
        </edge>
        <edge id="L0511">
            <lane id="L0511_0">
                <vehicle id="F09_0" pos="69.87" speed="10.88"/>
            </lane>
        </edge>
        <edge id="L0612">
            <lane id="L0612_0">
                <vehicle id="F13_0" pos="98.62" speed="17.70"/>
            </lane>
            <lane id="L0612_1">
                <vehicle id="F13_1" pos="32.80" speed="9.20"/>
            </lane>
            <lane id="L0612_2">
                <vehicle id="F13_2" pos="6.45" speed="1.35"/>
                <vehicle id="F10_0" pos="91.74" speed="16.96"/>
            </lane>
        </edge>
        <edge id="L1211">
            <lane id="L1211_0"/>
            <lane id="L1211_1">
                <vehicle id="F03_0" pos="87.93" speed="14.92"/>
            </lane>
        </edge>
        <edge id="L1314">
            <lane id="L1314_0">
                <vehicle id="F04_2" pos="21.67" speed="7.12"/>
                <vehicle id="F04_1" pos="57.81" speed="13.93"/>
            </lane>
            <lane id="L1314_1">
                <vehicle id="F04_3" pos="7.16" speed="2.06"/>
                <vehicle id="F04_0" pos="83.28" speed="14.45"/>
            </lane>
        </edge>
        <edge id="L1913">
            <lane id="L1913_0"/>
            <lane id="L1913_1">
                <vehicle id="F00_1" pos="23.04" speed="6.62"/>
                <vehicle id="F00_0" pos="92.49" speed="17.71"/>
            </lane>
            <lane id="L1913_2"/>
        </edge>
        <edge id="L2115">
            <lane id="L2115_0">
                <vehicle id="F075_0" pos="73.16" speed="10.97"/>
            </lane>
        </edge>
        <edge id="L2216">
            <lane id="L2216_0">
                <vehicle id="F08_0" pos="78.63" speed="10.60"/>
            </lane>
        </edge>
        <edge id="L2418">
            <lane id="L2418_0"/>
            <lane id="L2418_1">
                <vehicle id="F11_0" pos="99.99" speed="18.19"/>
            </lane>
            <lane id="L2418_2"/>
        </edge>
        <edge id="L2423">
            <lane id="L2423_0">
                <vehicle id="F05_0" pos="86.61" speed="15.22"/>
            </lane>
            <lane id="L2423_1"/>
        </edge>
    </timestep>
    <timestep time="10.00">
        <edge id="L0102">
            <lane id="L0102_0">
                <vehicle id="F02_1" pos="5.10" speed="0.00"/>
                <vehicle id="F02_0" pos="105.91" speed="14.88"/>
            </lane>
            <lane id="L0102_1"/>
        </edge>
        <edge id="L0107">
            <lane id="L0107_0">
                <vehicle id="F01_0" pos="102.45" speed="18.76"/>
            </lane>
            <lane id="L0107_1">
                <vehicle id="F01_2" pos="10.34" speed="3.77"/>
                <vehicle id="F01_1" pos="45.79" speed="11.12"/>
            </lane>
            <lane id="L0107_2"/>
        </edge>
        <edge id="L0208">
            <lane id="L0208_0">
                <vehicle id="F06_0" pos="88.81" speed="10.59"/>
            </lane>
        </edge>
        <edge id="L0309">
            <lane id="L0309_0">
                <vehicle id="F07_1" pos="5.10" speed="0.00"/>
                <vehicle id="F07_0" pos="86.22" speed="10.08"/>
            </lane>
        </edge>
        <edge id="L0511">
            <lane id="L0511_0">